<?xml version="1.0" encoding="ISO-8859-1"?>
<modeling>
 <generator>
  <i name="program" type="string">vasp </i>
  <i name="version" type="string">6.3.0  </i>
  <i name="subversion" type="string">20Jan22 (build Feb 21 2022 11:18:28) complex                          parallel </i>
  <i name="platform" type="string">CrayXC_GCC_OMP </i>
  <i name="date" type="string">2023 09 25 </i>
  <i name="time" type="string">11:50:33 </i>
 </generator>
 <incar>
  <i type="int" name="ISTART">     1</i>
  <i type="string" name="PREC">Accurate  (Precision level)</i>
  <i type="string" name="ALGO">FAST      (SCF minimisation algorithm</i>
  <i type="logical" name="ADDGRID"> T  </i>
  <i type="int" name="ISPIN">     1</i>
  <i type="int" name="INIWAV">     1</i>
  <i type="int" name="NELM">   500</i>
  <i type="int" name="NELMIN">     5</i>
  <i type="int" name="IBRION">     2</i>
  <i name="EDIFF">      0.00000001</i>
  <i name="EDIFFG">     -0.00000010</i>
  <i type="int" name="NSW">   200</i>
  <i type="int" name="ISIF">     8</i>
  <i type="int" name="ISYM">     2</i>
  <i type="int" name="NBLOCK">     1</i>
  <i name="ENMAX">    600.00000000</i>
  <i type="int" name="NEDOS">  1000</i>
  <i type="logical" name="LREAL"> F  </i>
  <i type="logical" name="LPLANE"> T  </i>
  <i type="int" name="ISMEAR">     0</i>
  <i name="SIGMA">      0.01000000</i>
  <i type="int" name="NWRITE">     2</i>
  <i type="int" name="LMAXMIX">     4</i>
  <i type="int" name="LORBIT">    11</i>
  <i type="int" name="ICORELEVEL">     1</i>
  <i type="string" name="GGA">PS     (PBEsol exchange-correlation)</i>
 </incar>
 <primitive_cell>
  <structure name="primitive_cell" >
   <crystal>
    <varray name="basis" >
     <v>       0.00000000       6.54179361       6.54179361 </v>
     <v>       6.54179361       0.00000000       6.54179361 </v>
     <v>       6.54179361       6.54179361       0.00000000 </v>
    </varray>
    <i name="volume">    559.91294770 </i>
    <varray name="rec_basis" >
     <v>      -0.07643164       0.07643164       0.07643164 </v>
     <v>       0.07643164      -0.07643164       0.07643164 </v>
     <v>       0.07643164       0.07643164      -0.07643164 </v>
    </varray>
   </crystal>
   <varray name="positions" >
    <v>       0.24859428       0.25144069       0.25029412 </v>
    <v>       0.75121883       0.24990423       0.24995270 </v>
    <v>       0.24974603       0.74957542       0.25054301 </v>
    <v>       0.75068377       0.74943573       0.24905031 </v>
    <v>       0.24984131       0.24986265       0.75107769 </v>
    <v>       0.74917214       0.24974251       0.75002643 </v>
    <v>       0.25120280       0.74840766       0.75028821 </v>
    <v>       0.74998577       0.75060848       0.74905670 </v>
    <v>       0.99985281       0.00089526       0.00045304 </v>
    <v>       0.49948385       0.99976920       0.00194355 </v>
    <v>       0.99953963       0.50038148       0.00034469 </v>
    <v>       0.50045390       0.50065763       0.99965620 </v>
    <v>       0.99992529       0.00041396       0.50016771 </v>
    <v>       0.50036506       0.99947814       0.50077689 </v>
    <v>       0.99857831       0.49947040       0.50076889 </v>
    <v>       0.49979694       0.49963581       0.50086376 </v>
   </varray>
  </structure>
  <varray name="primitive_index" >
   <v type="int" >        1 </v>
   <v type="int" >        2 </v>
   <v type="int" >        3 </v>
   <v type="int" >        4 </v>
   <v type="int" >        5 </v>
   <v type="int" >        6 </v>
   <v type="int" >        7 </v>
   <v type="int" >        8 </v>
   <v type="int" >        9 </v>
   <v type="int" >       10 </v>
   <v type="int" >       11 </v>
   <v type="int" >       12 </v>
   <v type="int" >       13 </v>
   <v type="int" >       14 </v>
   <v type="int" >       15 </v>
   <v type="int" >       16 </v>
  </varray>
 </primitive_cell>
 <kpoints>
  <generation param="Gamma">
   <v type="int" name="divisions">       6        6        6 </v>
   <v name="usershift">      0.00000000       0.00000000       0.00000000 </v>
   <v name="genvec1">      0.16666667       0.00000000      -0.00000000 </v>
   <v name="genvec2">      0.00000000       0.16666667       0.00000000 </v>
   <v name="genvec3">     -0.00000000      -0.00000000       0.16666667 </v>
   <v name="shift">      0.00000000       0.00000000       0.00000000 </v>
  </generation>
  <varray name="kpointlist" >
   <v>       0.00000000       0.00000000       0.00000000 </v>
   <v>       0.16666667       0.00000000       0.00000000 </v>
   <v>       0.00000000       0.16666667       0.00000000 </v>
   <v>       0.00000000       0.00000000       0.16666667 </v>
   <v>       0.16666667       0.16666667       0.16666667 </v>
   <v>       0.33333333       0.00000000       0.00000000 </v>
   <v>       0.00000000       0.33333333       0.00000000 </v>
   <v>       0.00000000       0.00000000       0.33333333 </v>
   <v>       0.33333333       0.33333333       0.33333333 </v>
   <v>       0.50000000       0.00000000       0.00000000 </v>
   <v>       0.00000000       0.50000000       0.00000000 </v>
   <v>       0.00000000       0.00000000       0.50000000 </v>
   <v>       0.50000000       0.50000000       0.50000000 </v>
   <v>       0.16666667       0.16666667       0.00000000 </v>
   <v>       0.00000000       0.16666667       0.16666667 </v>
   <v>       0.16666667       0.00000000       0.16666667 </v>
   <v>       0.33333333       0.16666667       0.00000000 </v>
   <v>       0.00000000       0.33333333       0.16666667 </v>
   <v>       0.16666667       0.00000000       0.33333333 </v>
   <v>       0.16666667       0.16666667      -0.16666667 </v>
   <v>       0.33333333       0.16666667       0.33333333 </v>
   <v>       0.16666667       0.33333333       0.00000000 </v>
   <v>       0.16666667      -0.16666667      -0.16666667 </v>
   <v>       0.33333333       0.33333333       0.16666667 </v>
   <v>       0.00000000       0.16666667       0.33333333 </v>
   <v>      -0.16666667       0.16666667      -0.16666667 </v>
   <v>       0.16666667       0.33333333       0.33333333 </v>
   <v>       0.33333333       0.00000000       0.16666667 </v>
   <v>       0.50000000       0.16666667       0.00000000 </v>
   <v>       0.00000000       0.50000000       0.16666667 </v>
   <v>       0.16666667       0.00000000       0.50000000 </v>
   <v>       0.16666667       0.16666667      -0.33333333 </v>
   <v>       0.50000000       0.33333333       0.50000000 </v>
   <v>       0.16666667       0.50000000       0.00000000 </v>
   <v>       0.33333333      -0.16666667      -0.16666667 </v>
   <v>       0.50000000       0.50000000       0.33333333 </v>
   <v>       0.00000000       0.16666667       0.50000000 </v>
   <v>      -0.16666667       0.33333333      -0.16666667 </v>
   <v>       0.33333333       0.50000000       0.50000000 </v>
   <v>       0.50000000       0.00000000       0.16666667 </v>
   <v>      -0.33333333       0.16666667       0.00000000 </v>
   <v>       0.00000000      -0.33333333       0.16666667 </v>
   <v>       0.16666667       0.00000000      -0.33333333 </v>
   <v>       0.16666667       0.16666667       0.50000000 </v>
   <v>      -0.33333333       0.50000000      -0.33333333 </v>
   <v>       0.16666667      -0.33333333       0.00000000 </v>
   <v>       0.50000000      -0.16666667      -0.16666667 </v>
   <v>      -0.33333333      -0.33333333       0.50000000 </v>
   <v>       0.00000000       0.16666667      -0.33333333 </v>
   <v>      -0.16666667       0.50000000      -0.16666667 </v>
   <v>       0.50000000      -0.33333333      -0.33333333 </v>
   <v>      -0.33333333       0.00000000       0.16666667 </v>
   <v>      -0.16666667       0.16666667       0.00000000 </v>
   <v>       0.00000000      -0.16666667       0.16666667 </v>
   <v>       0.16666667       0.00000000      -0.16666667 </v>
   <v>       0.16666667       0.16666667       0.33333333 </v>
   <v>      -0.16666667      -0.33333333      -0.16666667 </v>
   <v>      -0.33333333      -0.16666667      -0.16666667 </v>
   <v>       0.33333333       0.33333333       0.00000000 </v>
   <v>       0.00000000       0.33333333       0.33333333 </v>
   <v>       0.33333333       0.00000000       0.33333333 </v>
   <v>       0.50000000       0.33333333       0.00000000 </v>
   <v>       0.00000000       0.50000000       0.33333333 </v>
   <v>       0.33333333       0.00000000       0.50000000 </v>
   <v>       0.33333333       0.33333333      -0.16666667 </v>
   <v>       0.50000000       0.16666667       0.50000000 </v>
   <v>       0.33333333       0.50000000       0.00000000 </v>
   <v>       0.16666667      -0.33333333      -0.33333333 </v>
   <v>       0.50000000       0.50000000       0.16666667 </v>
   <v>       0.00000000       0.33333333       0.50000000 </v>
   <v>      -0.33333333       0.16666667      -0.33333333 </v>
   <v>       0.16666667       0.50000000       0.50000000 </v>
   <v>       0.50000000       0.00000000       0.33333333 </v>
   <v>      -0.33333333       0.33333333       0.00000000 </v>
   <v>       0.00000000      -0.33333333       0.33333333 </v>
   <v>       0.33333333       0.00000000      -0.33333333 </v>
   <v>       0.33333333       0.33333333      -0.33333333 </v>
   <v>      -0.33333333       0.33333333      -0.33333333 </v>
   <v>       0.33333333      -0.33333333      -0.33333333 </v>
   <v>       0.50000000       0.50000000       0.00000000 </v>
   <v>       0.00000000       0.50000000       0.50000000 </v>
   <v>       0.50000000       0.00000000       0.50000000 </v>
   <v>       0.50000000       0.33333333       0.16666667 </v>
   <v>       0.16666667       0.50000000       0.33333333 </v>
   <v>       0.33333333       0.16666667       0.50000000 </v>
   <v>       0.33333333       0.16666667      -0.16666667 </v>
   <v>       0.50000000       0.16666667       0.33333333 </v>
   <v>       0.16666667      -0.33333333      -0.16666667 </v>
   <v>       0.16666667       0.33333333      -0.16666667 </v>
   <v>       0.16666667      -0.16666667      -0.33333333 </v>
   <v>       0.33333333       0.50000000       0.16666667 </v>
   <v>      -0.16666667       0.16666667      -0.33333333 </v>
   <v>      -0.33333333       0.16666667      -0.16666667 </v>
   <v>       0.16666667       0.33333333       0.50000000 </v>
   <v>      -0.33333333       0.33333333       0.16666667 </v>
   <v>       0.16666667      -0.33333333       0.33333333 </v>
   <v>       0.33333333       0.16666667      -0.33333333 </v>
   <v>      -0.33333333       0.33333333       0.50000000 </v>
   <v>       0.16666667       0.50000000      -0.16666667 </v>
   <v>       0.33333333      -0.16666667      -0.33333333 </v>
   <v>       0.50000000      -0.33333333       0.33333333 </v>
   <v>      -0.16666667       0.16666667       0.50000000 </v>
   <v>      -0.33333333       0.33333333      -0.16666667 </v>
   <v>       0.33333333       0.50000000      -0.33333333 </v>
   <v>       0.50000000      -0.16666667       0.16666667 </v>
   <v>      -0.16666667      -0.33333333       0.33333333 </v>
   <v>      -0.33333333       0.50000000       0.16666667 </v>
   <v>       0.16666667      -0.33333333       0.50000000 </v>
   <v>       0.50000000       0.16666667      -0.33333333 </v>
   <v>       0.50000000       0.33333333      -0.16666667 </v>
   <v>      -0.33333333       0.16666667       0.50000000 </v>
   <v>       0.16666667       0.50000000      -0.33333333 </v>
  </varray>
  <varray name="weights" >
   <v>       0.00462963 </v>
   <v>       0.00925926 </v>
   <v>       0.00925926 </v>
   <v>       0.00925926 </v>
   <v>       0.00925926 </v>
   <v>       0.00925926 </v>
   <v>       0.00925926 </v>
   <v>       0.00925926 </v>
   <v>       0.00925926 </v>
   <v>       0.00462963 </v>
   <v>       0.00462963 </v>
   <v>       0.00462963 </v>
   <v>       0.00462963 </v>
   <v>       0.00925926 </v>
   <v>       0.00925926 </v>
   <v>       0.00925926 </v>
   <v>       0.00925926 </v>
   <v>       0.00925926 </v>
   <v>       0.00925926 </v>
   <v>       0.00925926 </v>
   <v>       0.00925926 </v>
   <v>       0.00925926 </v>
   <v>       0.00925926 </v>
   <v>       0.00925926 </v>
   <v>       0.00925926 </v>
   <v>       0.00925926 </v>
   <v>       0.00925926 </v>
   <v>       0.00925926 </v>
   <v>       0.00925926 </v>
   <v>       0.00925926 </v>
   <v>       0.00925926 </v>
   <v>       0.00925926 </v>
   <v>       0.00925926 </v>
   <v>       0.00925926 </v>
   <v>       0.00925926 </v>
   <v>       0.00925926 </v>
   <v>       0.00925926 </v>
   <v>       0.00925926 </v>
   <v>       0.00925926 </v>
   <v>       0.00925926 </v>
   <v>       0.00925926 </v>
   <v>       0.00925926 </v>
   <v>       0.00925926 </v>
   <v>       0.00925926 </v>
   <v>       0.00925926 </v>
   <v>       0.00925926 </v>
   <v>       0.00925926 </v>
   <v>       0.00925926 </v>
   <v>       0.00925926 </v>
   <v>       0.00925926 </v>
   <v>       0.00925926 </v>
   <v>       0.00925926 </v>
   <v>       0.00925926 </v>
   <v>       0.00925926 </v>
   <v>       0.00925926 </v>
   <v>       0.00925926 </v>
   <v>       0.00925926 </v>
   <v>       0.00925926 </v>
   <v>       0.00925926 </v>
   <v>       0.00925926 </v>
   <v>       0.00925926 </v>
   <v>       0.00925926 </v>
   <v>       0.00925926 </v>
   <v>       0.00925926 </v>
   <v>       0.00925926 </v>
   <v>       0.00925926 </v>
   <v>       0.00925926 </v>
   <v>       0.00925926 </v>
   <v>       0.00925926 </v>
   <v>       0.00925926 </v>
   <v>       0.00925926 </v>
   <v>       0.00925926 </v>
   <v>       0.00925926 </v>
   <v>       0.00925926 </v>
   <v>       0.00925926 </v>
   <v>       0.00925926 </v>
   <v>       0.00925926 </v>
   <v>       0.00925926 </v>
   <v>       0.00925926 </v>
   <v>       0.00462963 </v>
   <v>       0.00462963 </v>
   <v>       0.00462963 </v>
   <v>       0.00925926 </v>
   <v>       0.00925926 </v>
   <v>       0.00925926 </v>
   <v>       0.00925926 </v>
   <v>       0.00925926 </v>
   <v>       0.00925926 </v>
   <v>       0.00925926 </v>
   <v>       0.00925926 </v>
   <v>       0.00925926 </v>
   <v>       0.00925926 </v>
   <v>       0.00925926 </v>
   <v>       0.00925926 </v>
   <v>       0.00925926 </v>
   <v>       0.00925926 </v>
   <v>       0.00925926 </v>
   <v>       0.00925926 </v>
   <v>       0.00925926 </v>
   <v>       0.00925926 </v>
   <v>       0.00925926 </v>
   <v>       0.00925926 </v>
   <v>       0.00925926 </v>
   <v>       0.00925926 </v>
   <v>       0.00925926 </v>
   <v>       0.00925926 </v>
   <v>       0.00925926 </v>
   <v>       0.00925926 </v>
   <v>       0.00925926 </v>
   <v>       0.00925926 </v>
   <v>       0.00925926 </v>
   <v>       0.00925926 </v>
  </varray>
 </kpoints>
 <parameters>
  <separator name="general" >
   <i type="string" name="SYSTEM">unknown system</i>
   <i type="logical" name="LCOMPAT"> F  </i>
  </separator>
  <separator name="electronic" >
   <i type="string" name="PREC">accura</i>
   <i name="ENMAX">    600.00000000</i>
   <i name="ENAUG">    391.91400000</i>
   <i name="EDIFF">      0.00000001</i>
   <i type="int" name="IALGO">    68</i>
   <i type="int" name="IWAVPR">    11</i>
   <i type="int" name="NBANDS">    96</i>
   <i type="int" name="NBANDSLOW">    -1</i>
   <i type="int" name="NBANDSHIGH">    -1</i>
   <i name="NELECT">    160.00000000</i>
   <i type="int" name="TURBO">     0</i>
   <i type="int" name="IRESTART">     0</i>
   <i type="int" name="NREBOOT">     0</i>
   <i type="int" name="NMIN">     0</i>
   <i name="EREF">      0.00000000</i>
   <separator name="electronic smearing" >
    <i type="int" name="ISMEAR">     0</i>
    <i name="SIGMA">      0.01000000</i>
    <i name="KSPACING">      0.50000000</i>
    <i type="logical" name="KGAMMA"> T  </i>
    <i type="logical" name="KBLOWUP"> T  </i>
   </separator>
   <separator name="electronic projectors" >
    <i type="logical" name="LREAL"> F  </i>
    <v name="ROPT">      0.00000000      0.00000000</v>
    <i type="int" name="LMAXPAW">  -100</i>
    <i type="int" name="LMAXMIX">     4</i>
    <i type="logical" name="NLSPLINE"> F  </i>
   </separator>
   <separator name="electronic startup" >
    <i type="int" name="ISTART">     0</i>
    <i type="int" name="ICHARG">     2</i>
    <i type="int" name="INIWAV">     1</i>
   </separator>
   <separator name="electronic spin" >
    <i type="int" name="ISPIN">     1</i>
    <i type="logical" name="LNONCOLLINEAR"> F  </i>
    <v name="MAGMOM">      1.00000000      1.00000000      1.00000000      1.00000000      1.00000000      1.00000000      1.00000000      1.00000000      1.00000000      1.00000000      1.00000000      1.00000000      1.00000000      1.00000000      1.00000000      1.00000000</v>
    <i name="NUPDOWN">     -1.00000000</i>
    <i type="logical" name="LSORBIT"> F  </i>
    <v name="SAXIS">      0.00000000      0.00000000      1.00000000</v>
    <i type="logical" name="LSPIRAL"> F  </i>
    <v name="QSPIRAL">      0.00000000      0.00000000      0.00000000</v>
    <i type="logical" name="LZEROZ"> F  </i>
   </separator>
   <separator name="electronic exchange-correlation" >
    <i type="logical" name="LASPH"> F  </i>
    <i type="logical" name="LMETAGGA"> F  </i>
   </separator>
   <separator name="electronic convergence" >
    <i type="int" name="NELM">   500</i>
    <i type="int" name="NELMDL">     0</i>
    <i type="int" name="NELMIN">     5</i>
    <i name="ENINI">    600.00000000</i>
    <separator name="electronic convergence detail" >
     <i type="logical" name="LDIAG"> T  </i>
     <i type="logical" name="LSUBROT"> F  </i>
     <i name="WEIMIN">      0.00100000</i>
     <i name="EBREAK">      0.00000000</i>
     <i name="DEPER">      0.30000000</i>
     <i type="int" name="NRMM">     4</i>
     <i name="TIME">      0.40000000</i>
    </separator>
   </separator>
   <separator name="electronic mixer" >
    <i name="AMIX">      0.40000000</i>
    <i name="BMIX">      1.00000000</i>
    <i name="AMIN">      0.10000000</i>
    <i name="AMIX_MAG">      1.60000000</i>
    <i name="BMIX_MAG">      1.00000000</i>
    <separator name="electronic mixer details" >
     <i type="int" name="IMIX">     4</i>
     <i type="logical" name="MIXFIRST"> F  </i>
     <i type="int" name="MAXMIX">   -45</i>
     <i name="WC">    100.00000000</i>
     <i type="int" name="INIMIX">     1</i>
     <i type="int" name="MIXPRE">     1</i>
     <i type="int" name="MREMOVE">     5</i>
    </separator>
   </separator>
   <separator name="electronic dipolcorrection" >
    <i type="logical" name="LDIPOL"> F  </i>
    <i type="logical" name="LMONO"> F  </i>
    <i type="int" name="IDIPOL">     0</i>
    <i name="EPSILON">      1.00000000</i>
    <v name="DIPOL">   -100.00000000   -100.00000000   -100.00000000</v>
    <i name="EFIELD">      0.00000000</i>
   </separator>
  </separator>
  <separator name="grids" >
   <i type="int" name="NGX">    80</i>
   <i type="int" name="NGY">    80</i>
   <i type="int" name="NGZ">    80</i>
   <i type="int" name="NGXF">   160</i>
   <i type="int" name="NGYF">   160</i>
   <i type="int" name="NGZF">   160</i>
   <i type="logical" name="ADDGRID"> T  </i>
  </separator>
  <separator name="ionic" >
   <i type="int" name="NSW">   200</i>
   <i type="int" name="IBRION">     2</i>
   <i type="int" name="MDALGO">     0</i>
   <i type="int" name="ISIF">     8</i>
   <i name="PSTRESS">      0.00000000</i>
   <i name="EDIFFG">     -0.00000010</i>
   <i type="int" name="NFREE">     1</i>
   <i name="POTIM">      0.50000000</i>
   <i name="SMASS">     -3.00000000</i>
   <i name="SCALEE">      1.00000000</i>
  </separator>
  <separator name="ionic md" >
   <i name="TEBEG">      0.00010000</i>
   <i name="TEEND">      0.00010000</i>
   <i type="int" name="NBLOCK">     1</i>
   <i type="int" name="KBLOCK">   200</i>
   <i type="int" name="NPACO">   256</i>
   <i name="APACO">     10.00000000</i>
  </separator>
  <separator name="symmetry" >
   <i type="int" name="ISYM">     2</i>
   <i name="SYMPREC">      0.00001000</i>
  </separator>
  <separator name="dos" >
   <i type="int" name="LORBIT">    11</i>
   <v name="RWIGS">     -1.00000000     -1.00000000</v>
   <i type="int" name="NEDOS">  1000</i>
   <i name="EMIN">     10.00000000</i>
   <i name="EMAX">    -10.00000000</i>
   <i name="EFERMI">      0.00000000</i>
  </separator>
  <separator name="writing" >
   <i type="int" name="NWRITE">     2</i>
   <i type="logical" name="LWAVE"> T  </i>
   <i type="logical" name="LDOWNSAMPLE"> F  </i>
   <i type="logical" name="LCHARG"> T  </i>
   <i type="logical" name="LPARD"> F  </i>
   <i type="logical" name="LVTOT"> F  </i>
   <i type="logical" name="LVHAR"> F  </i>
   <i type="logical" name="LELF"> F  </i>
   <i type="logical" name="LOPTICS"> F  </i>
   <v name="STM">      0.00000000      0.00000000      0.00000000      0.00000000      0.00000000      0.00000000      0.00000000</v>
  </separator>
  <separator name="performance" >
   <i type="int" name="NPAR">     8</i>
   <i type="int" name="NSIM">     4</i>
   <i type="int" name="NBLK">    -1</i>
   <i type="logical" name="LPLANE"> T  </i>
   <i type="logical" name="LSCALAPACK"> T  </i>
   <i type="logical" name="LSCAAWARE"> F  </i>
   <i type="logical" name="LSCALU"> F  </i>
   <i type="logical" name="LASYNC"> F  </i>
   <i type="logical" name="LORBITALREAL"> F  </i>
  </separator>
  <separator name="miscellaneous" >
   <i type="int" name="IDIOT">     3</i>
   <i type="int" name="PHON_NSTRUCT">    -1</i>
   <i type="logical" name="LMUSIC"> F  </i>
   <v name="POMASS">    207.20000000    127.60000000</v>
   <v name="DARWINR">      0.00000000      0.00000000</v>
   <v name="DARWINV">      1.00000000      1.00000000</v>
   <i type="logical" name="LCORR"> T  </i>
  </separator>
  <i type="logical" name="GGA_COMPAT"> T  </i>
  <i type="logical" name="LBERRY"> F  </i>
  <i type="int" name="ICORELEVEL">     1</i>
  <i type="int" name="CLNT">     1</i>
  <i type="int" name="CLN">     1</i>
  <i type="int" name="CLL">     0</i>
  <i name="CLZ">      0.00000000</i>
  <i type="logical" name="LDAU"> F  </i>
  <i type="int" name="I_CONSTRAINED_M">     0</i>
  <separator name="electronic exchange-correlation" >
   <i type="string" name="GGA">PS</i>
   <i type="int" name="VOSKOWN">     0</i>
   <i type="logical" name="LHFCALC"> F  </i>
   <i type="string" name="PRECFOCK"></i>
   <i type="logical" name="LSYMGRAD"> F  </i>
   <i type="logical" name="LHFONE"> F  </i>
   <i type="logical" name="LRHFCALC"> F  </i>
   <i type="logical" name="LTHOMAS"> F  </i>
   <i type="logical" name="LMODELHF"> F  </i>
   <i type="logical" name="LFOCKACE"> F  </i>
   <i name="ENCUT4O">     -1.00000000</i>
   <i type="int" name="EXXOEP">     0</i>
   <i type="int" name="FOURORBIT">     0</i>
   <i name="AEXX">      0.00000000</i>
   <i name="HFALPHA">      0.00000000</i>
   <i name="MCALPHA">      0.00000000</i>
   <i name="ALDAX">      1.00000000</i>
   <i name="AGGAX">      1.00000000</i>
   <i name="ALDAC">      1.00000000</i>
   <i name="AGGAC">      1.00000000</i>
   <i type="int" name="NKREDX">     1</i>
   <i type="int" name="NKREDY">     1</i>
   <i type="int" name="NKREDZ">     1</i>
   <i type="logical" name="SHIFTRED"> F  </i>
   <i type="logical" name="ODDONLY"> F  </i>
   <i type="logical" name="EVENONLY"> F  </i>
   <i type="int" name="LMAXFOCK">     0</i>
   <i type="int" name="NMAXFOCKAE">     0</i>
   <i type="logical" name="LFOCKAEDFT"> F  </i>
   <i name="HFSCREEN">      0.00000000</i>
   <i name="HFSCREENC">      0.00000000</i>
   <i type="int" name="NBANDSGWLOW">     0</i>
  </separator>
  <separator name="vdW DFT" >
   <i type="logical" name="LUSE_VDW"> F  </i>
   <i name="Zab_VDW">     -0.84910000</i>
   <i name="PARAM1">      0.12340000</i>
   <i name="PARAM2">      1.00000000</i>
   <i name="PARAM3">      0.00000000</i>
  </separator>
  <separator name="model GW" >
   <i type="int" name="MODEL_GW">     0</i>
   <i name="MODEL_EPS0">     20.99673554</i>
   <i name="MODEL_ALPHA">      1.00000000</i>
  </separator>
  <separator name="linear response parameters" >
   <i type="logical" name="LEPSILON"> F  </i>
   <i type="logical" name="LRPA"> F  </i>
   <i type="logical" name="LNABLA"> F  </i>
   <i type="logical" name="LVEL"> F  </i>
   <i name="CSHIFT">      0.10000000</i>
   <i name="OMEGAMAX">     -1.00000000</i>
   <i name="DEG_THRESHOLD">      0.00200000</i>
   <i name="RTIME">     -0.10000000</i>
   <i name="WPLASMAI">      0.00000000</i>
   <v name="DFIELD">      0.00000000      0.00000000      0.00000000</v>
   <v name="WPLASMA">      0.00000000      0.00000000      0.00000000      0.00000000      0.00000000      0.00000000      0.00000000      0.00000000      0.00000000</v>
  </separator>
  <separator name="orbital magnetization" >
   <i type="logical" name="NUCIND"> F  </i>
   <v name="MAGPOS">      0.00000000      0.00000000      0.00000000</v>
   <i type="logical" name="LNICSALL"> T  </i>
   <i type="logical" name="ORBITALMAG"> F  </i>
   <i type="logical" name="LMAGBLOCH"> F  </i>
   <i type="logical" name="LCHIMAG"> F  </i>
   <i type="logical" name="LGAUGE"> T  </i>
   <i type="int" name="MAGATOM">     0</i>
   <v name="MAGDIPOL">      0.00000000      0.00000000      0.00000000</v>
   <v name="AVECCONST">      0.00000000      0.00000000      0.00000000</v>
  </separator>
  <separator name="response functions" >
   <i type="logical" name="LFINITE_TEMPERATURE"> F  </i>
   <i type="logical" name="LADDER"> F  </i>
   <i type="logical" name="LRPAFORCE"> F  </i>
   <i type="logical" name="LFXC"> F  </i>
   <i type="logical" name="LHARTREE"> T  </i>
   <i type="int" name="IBSE">     0</i>
   <v type="int" name="KPOINT">    -1     0     0     0</v>
   <i type="logical" name="LTCTC"> F  </i>
   <i type="logical" name="LTCTE"> F  </i>
   <i type="logical" name="LTETE"> F  </i>
   <i type="logical" name="LTRIPLET"> F  </i>
   <i type="logical" name="LFXCEPS"> F  </i>
   <i type="logical" name="LFXHEG"> F  </i>
   <i type="int" name="NATURALO">     2</i>
   <i type="logical" name="LHOLEGF"> F  </i>
   <i type="logical" name="L2ORDER"> F  </i>
   <i type="logical" name="LDMP1"> F  </i>
   <i type="logical" name="LMP2LT"> F  </i>
   <i type="logical" name="LSMP2LT"> F  </i>
   <i type="logical" name="LGWLF"> F  </i>
   <i name="ENCUTGW">     -2.00000000</i>
   <i name="ENCUTGWSOFT">     -2.00000000</i>
   <i name="ENCUTLF">     -1.00000000</i>
   <i type="logical" name="LESF_SPLINES"> F  </i>
   <i type="int" name="LMAXMP2">    -1</i>
   <i name="SCISSOR">      0.00000000</i>
   <i type="int" name="NOMEGA">     0</i>
   <i type="int" name="NOMEGAR">     0</i>
   <i type="int" name="NBANDSGW">    -1</i>
   <i type="int" name="NBANDSO">    -1</i>
   <i type="int" name="NBANDSV">    -1</i>
   <i type="int" name="NELMGW">     1</i>
   <i type="int" name="NELMHF">     1</i>
   <i type="int" name="DIM">     3</i>
   <i type="int" name="IESPILON">     4</i>
   <i type="int" name="ANTIRES">     0</i>
   <i name="OMEGAMAX">    -30.00000000</i>
   <i name="OMEGAMIN">    -30.00000000</i>
   <i name="OMEGATL">   -200.00000000</i>
   <i type="int" name="OMEGAGRID">     0</i>
   <i name="CSHIFT">     -0.10000000</i>
   <i type="logical" name="LSELFENERGY"> F  </i>
   <i type="logical" name="LSPECTRAL"> F  </i>
   <i type="logical" name="LSPECTRALGW"> F  </i>
   <i type="logical" name="LSINGLES"> F  </i>
   <i type="logical" name="LFERMIGW"> F  </i>
   <i type="logical" name="ODDONLYGW"> F  </i>
   <i type="logical" name="EVENONLYGW"> F  </i>
   <i type="int" name="NKREDLFX">     1</i>
   <i type="int" name="NKREDLFY">     1</i>
   <i type="int" name="NKREDLFZ">     1</i>
   <i type="int" name="MAXMEM">  2800</i>
   <i type="int" name="TELESCOPE">     0</i>
   <i type="int" name="NTAUPAR">    -1</i>
   <i type="int" name="NOMEGAPAR">    -1</i>
   <i name="DAMP_NEWTON">      0.80000001</i>
   <i name="LAMBDA">      1.00000000</i>
  </separator>
  <separator name="External order field" >
   <i name="OFIELD_KAPPA">      0.00000000</i>
   <v name="OFIELD_K">      0.00000000      0.00000000      0.00000000</v>
   <i name="OFIELD_Q6_NEAR">      0.00000000</i>
   <i name="OFIELD_Q6_FAR">      0.00000000</i>
   <i name="OFIELD_A">      0.00000000</i>
  </separator>
  <separator name="optional k-points parameters" >
   <i type="int" name="KPOINTS_OPT_MODE">     1</i>
   <i type="logical" name="LKPOINTS_OPT"> F  </i>
  </separator>
 </parameters>
 <atominfo>
  <atoms>      16 </atoms>
  <types>       2 </types>
  <array name="atoms" >
   <dimension dim="1">ion</dimension>
   <field type="string">element</field>
   <field type="int">atomtype</field>
   <set>
    <rc><c>Pb</c><c>   1</c></rc>
    <rc><c>Pb</c><c>   1</c></rc>
    <rc><c>Pb</c><c>   1</c></rc>
    <rc><c>Pb</c><c>   1</c></rc>
    <rc><c>Pb</c><c>   1</c></rc>
    <rc><c>Pb</c><c>   1</c></rc>
    <rc><c>Pb</c><c>   1</c></rc>
    <rc><c>Pb</c><c>   1</c></rc>
    <rc><c>Te</c><c>   2</c></rc>
    <rc><c>Te</c><c>   2</c></rc>
    <rc><c>Te</c><c>   2</c></rc>
    <rc><c>Te</c><c>   2</c></rc>
    <rc><c>Te</c><c>   2</c></rc>
    <rc><c>Te</c><c>   2</c></rc>
    <rc><c>Te</c><c>   2</c></rc>
    <rc><c>Te</c><c>   2</c></rc>
   </set>
  </array>
  <array name="atomtypes" >
   <dimension dim="1">type</dimension>
   <field type="int">atomspertype</field>
   <field type="string">element</field>
   <field>mass</field>
   <field>valence</field>
   <field type="string">pseudopotential</field>
   <set>
    <rc><c>   8</c><c>Pb</c><c>    207.20000000</c><c>     14.00000000</c><c>  PAW_PBE Pb_d 06Sep2000                </c></rc>
    <rc><c>   8</c><c>Te</c><c>    127.60000000</c><c>      6.00000000</c><c>  PAW_PBE Te 08Apr2002                  </c></rc>
   </set>
  </array>
 </atominfo>
 <structure name="initialpos" >
  <crystal>
   <varray name="basis" >
    <v>       0.00000000       6.54179361       6.54179361 </v>
    <v>       6.54179361       0.00000000       6.54179361 </v>
    <v>       6.54179361       6.54179361       0.00000000 </v>
   </varray>
   <i name="volume">    559.91294770 </i>
   <varray name="rec_basis" >
    <v>      -0.07643164       0.07643164       0.07643164 </v>
    <v>       0.07643164      -0.07643164       0.07643164 </v>
    <v>       0.07643164       0.07643164      -0.07643164 </v>
   </varray>
  </crystal>
  <varray name="positions" >
   <v>       0.24859428       0.25144069       0.25029412 </v>
   <v>       0.75121883       0.24990423       0.24995270 </v>
   <v>       0.24974603       0.74957542       0.25054301 </v>
   <v>       0.75068377       0.74943573       0.24905031 </v>
   <v>       0.24984131       0.24986265       0.75107769 </v>
   <v>       0.74917214       0.24974251       0.75002643 </v>
   <v>       0.25120280       0.74840766       0.75028821 </v>
   <v>       0.74998577       0.75060848       0.74905670 </v>
   <v>       0.99985281       0.00089526       0.00045304 </v>
   <v>       0.49948385       0.99976920       0.00194355 </v>
   <v>       0.99953963       0.50038148       0.00034469 </v>
   <v>       0.50045390       0.50065763       0.99965620 </v>
   <v>       0.99992529       0.00041396       0.50016771 </v>
   <v>       0.50036506       0.99947814       0.50077689 </v>
   <v>       0.99857831       0.49947040       0.50076889 </v>
   <v>       0.49979694       0.49963581       0.50086376 </v>
  </varray>
 </structure>
 <calculation>
  <scstep>
   <time name="dav">   12.33   12.33</time>
   <time name="total">   12.63   12.64</time>
   <energy>
    <i name="alphaZ">    277.80440176 </i>
    <i name="ewald"> -10977.36100656 </i>
    <i name="hartreedc">  -4109.85947156 </i>
    <i name="XCdc">     90.11409257 </i>
    <i name="pawpsdc">  13132.28373248 </i>
    <i name="pawaedc"> -12699.49664494 </i>
    <i name="eentropy">     -0.00008444 </i>
    <i name="bandstr">   1051.58549482 </i>
    <i name="atom">  15084.07529148 </i>
    <i name="e_fr_energy">   1849.14580561 </i>
    <i name="e_wo_entrp">   1849.14589006 </i>
    <i name="e_0_energy">   1849.14584784 </i>
   </energy>
  </scstep>
  <scstep>
   <time name="dav">   12.30   12.32</time>
   <time name="total">   12.31   12.32</time>
   <energy>
    <i name="e_fr_energy">    203.68939549 </i>
    <i name="e_wo_entrp">    203.68968142 </i>
    <i name="e_0_energy">    203.68953846 </i>
   </energy>
  </scstep>
  <scstep>
   <time name="dav">   14.44   14.46</time>
   <time name="total">   14.44   14.47</time>
   <energy>
    <i name="e_fr_energy">    -47.25826832 </i>
    <i name="e_wo_entrp">    -47.25826832 </i>
    <i name="e_0_energy">    -47.25826832 </i>
   </energy>
  </scstep>
  <scstep>
   <time name="dav">   14.21   14.22</time>
   <time name="total">   14.22   14.22</time>
   <energy>
    <i name="e_fr_energy">    -66.07732107 </i>
    <i name="e_wo_entrp">    -66.07732107 </i>
    <i name="e_0_energy">    -66.07732107 </i>
   </energy>
  </scstep>
  <scstep>
   <time name="dav">   14.54   14.56</time>
   <time name="total">   15.59   15.61</time>
   <energy>
    <i name="e_fr_energy">    -66.97921618 </i>
    <i name="e_wo_entrp">    -66.97921618 </i>
    <i name="e_0_energy">    -66.97921618 </i>
   </energy>
  </scstep>
  <scstep>
   <time name="diag">    3.26    3.27</time>
   <time name="diis">   11.04   11.05</time>
   <time name="orth">    0.31    0.31</time>
   <time name="total">   15.90   15.92</time>
   <energy>
    <i name="e_fr_energy">    -65.95515580 </i>
    <i name="e_wo_entrp">    -65.95515580 </i>
    <i name="e_0_energy">    -65.95515580 </i>
   </energy>
  </scstep>
  <scstep>
   <time name="diag">    3.35    3.35</time>
   <time name="diis">   11.33   11.33</time>
   <time name="orth">    0.31    0.31</time>
   <time name="total">   16.26   16.27</time>
   <energy>
    <i name="e_fr_energy">    -65.95655093 </i>
    <i name="e_wo_entrp">    -65.95655093 </i>
    <i name="e_0_energy">    -65.95655093 </i>
   </energy>
  </scstep>
  <scstep>
   <time name="diag">    3.34    3.34</time>
   <time name="diis">   11.17   11.18</time>
   <time name="orth">    0.31    0.31</time>
   <time name="total">   16.08   16.10</time>
   <energy>
    <i name="e_fr_energy">    -65.94069495 </i>
    <i name="e_wo_entrp">    -65.94069495 </i>
    <i name="e_0_energy">    -65.94069495 </i>
   </energy>
  </scstep>
  <scstep>
   <time name="diag">    3.30    3.30</time>
   <time name="diis">   12.40   12.41</time>
   <time name="orth">    0.31    0.31</time>
   <time name="total">   17.28   17.30</time>
   <energy>
    <i name="e_fr_energy">    -65.92410716 </i>
    <i name="e_wo_entrp">    -65.92410716 </i>
    <i name="e_0_energy">    -65.92410716 </i>
   </energy>
  </scstep>
  <scstep>
   <time name="diag">    3.28    3.28</time>
   <time name="diis">   12.58   12.59</time>
   <time name="orth">    0.31    0.31</time>
   <time name="total">   17.43   17.45</time>
   <energy>
    <i name="e_fr_energy">    -65.92727251 </i>
    <i name="e_wo_entrp">    -65.92727251 </i>
    <i name="e_0_energy">    -65.92727251 </i>
   </energy>
  </scstep>
  <scstep>
   <time name="diag">    3.45    3.45</time>
   <time name="diis">   12.83   12.84</time>
   <time name="orth">    0.31    0.31</time>
   <time name="total">   17.87   17.88</time>
   <energy>
    <i name="e_fr_energy">    -65.92612867 </i>
    <i name="e_wo_entrp">    -65.92612867 </i>
    <i name="e_0_energy">    -65.92612867 </i>
   </energy>
  </scstep>
  <scstep>
   <time name="diag">    3.30    3.30</time>
   <time name="diis">   11.86   11.86</time>
   <time name="orth">    0.31    0.31</time>
   <time name="total">   16.72   16.75</time>
   <energy>
    <i name="e_fr_energy">    -65.92622868 </i>
    <i name="e_wo_entrp">    -65.92622868 </i>
    <i name="e_0_energy">    -65.92622868 </i>
   </energy>
  </scstep>
  <scstep>
   <time name="diag">    3.28    3.28</time>
   <time name="diis">   12.43   12.44</time>
   <time name="orth">    0.31    0.31</time>
   <time name="total">   17.30   17.31</time>
   <energy>
    <i name="e_fr_energy">    -65.92539475 </i>
    <i name="e_wo_entrp">    -65.92539475 </i>
    <i name="e_0_energy">    -65.92539475 </i>
   </energy>
  </scstep>
  <scstep>
   <time name="diag">    3.31    3.31</time>
   <time name="diis">   14.20   14.21</time>
   <time name="orth">    0.31    0.31</time>
   <time name="total">   19.08   19.10</time>
   <energy>
    <i name="e_fr_energy">    -65.92546044 </i>
    <i name="e_wo_entrp">    -65.92546044 </i>
    <i name="e_0_energy">    -65.92546044 </i>
   </energy>
  </scstep>
  <scstep>
   <time name="diag">    3.36    3.36</time>
   <time name="diis">   13.41   13.42</time>
   <time name="orth">    0.31    0.31</time>
   <time name="total">   18.37   18.38</time>
   <energy>
    <i name="e_fr_energy">    -65.92544357 </i>
    <i name="e_wo_entrp">    -65.92544357 </i>
    <i name="e_0_energy">    -65.92544357 </i>
   </energy>
  </scstep>
  <scstep>
   <time name="diag">    3.40    3.40</time>
   <time name="diis">   11.50   11.51</time>
   <time name="orth">    0.31    0.31</time>
   <time name="total">   16.47   16.50</time>
   <energy>
    <i name="e_fr_energy">    -65.92542766 </i>
    <i name="e_wo_entrp">    -65.92542766 </i>
    <i name="e_0_energy">    -65.92542766 </i>
   </energy>
  </scstep>
  <scstep>
   <time name="diag">    3.35    3.36</time>
   <time name="diis">   12.65   12.65</time>
   <time name="orth">    0.31    0.31</time>
   <time name="total">   17.59   17.61</time>
   <energy>
    <i name="e_fr_energy">    -65.92543166 </i>
    <i name="e_wo_entrp">    -65.92543166 </i>
    <i name="e_0_energy">    -65.92543166 </i>
   </energy>
  </scstep>
  <scstep>
   <time name="diag">    3.37    3.37</time>
   <time name="diis">   13.48   13.49</time>
   <time name="orth">    0.31    0.31</time>
   <time name="total">   18.43   18.45</time>
   <energy>
    <i name="e_fr_energy">    -65.92542854 </i>
    <i name="e_wo_entrp">    -65.92542854 </i>
    <i name="e_0_energy">    -65.92542854 </i>
   </energy>
  </scstep>
  <scstep>
   <time name="diag">    3.39    3.39</time>
   <time name="diis">   10.78   10.78</time>
   <time name="orth">    0.31    0.31</time>
   <time name="total">   15.77   15.78</time>
   <energy>
    <i name="e_fr_energy">    -65.92542233 </i>
    <i name="e_wo_entrp">    -65.92542233 </i>
    <i name="e_0_energy">    -65.92542233 </i>
   </energy>
  </scstep>
  <scstep>
   <time name="diag">    3.29    3.29</time>
   <time name="diis">   13.46   13.47</time>
   <time name="orth">    0.31    0.31</time>
   <time name="total">   18.33   18.35</time>
   <energy>
    <i name="e_fr_energy">    -65.92542092 </i>
    <i name="e_wo_entrp">    -65.92542092 </i>
    <i name="e_0_energy">    -65.92542092 </i>
   </energy>
  </scstep>
  <scstep>
   <time name="diag">    3.36    3.36</time>
   <time name="diis">   13.02   13.03</time>
   <time name="orth">    0.31    0.31</time>
   <time name="total">   17.98   17.99</time>
   <energy>
    <i name="e_fr_energy">    -65.92542063 </i>
    <i name="e_wo_entrp">    -65.92542063 </i>
    <i name="e_0_energy">    -65.92542063 </i>
   </energy>
  </scstep>
  <scstep>
   <time name="diag">    3.37    3.37</time>
   <time name="diis">   11.17   11.18</time>
   <time name="orth">    0.31    0.31</time>
   <time name="total">   16.12   16.14</time>
   <energy>
    <i name="e_fr_energy">    -65.92542023 </i>
    <i name="e_wo_entrp">    -65.92542023 </i>
    <i name="e_0_energy">    -65.92542023 </i>
   </energy>
  </scstep>
  <scstep>
   <time name="diag">    3.33    3.33</time>
   <time name="diis">   14.40   14.41</time>
   <time name="orth">    0.31    0.31</time>
   <time name="total">   19.32   19.34</time>
   <energy>
    <i name="e_fr_energy">    -65.92541786 </i>
    <i name="e_wo_entrp">    -65.92541786 </i>
    <i name="e_0_energy">    -65.92541786 </i>
   </energy>
  </scstep>
  <scstep>
   <time name="diag">    3.36    3.37</time>
   <time name="diis">   11.30   11.30</time>
   <time name="orth">    0.31    0.31</time>
   <time name="total">   16.24   16.26</time>
   <energy>
    <i name="e_fr_energy">    -65.92541739 </i>
    <i name="e_wo_entrp">    -65.92541739 </i>
    <i name="e_0_energy">    -65.92541739 </i>
   </energy>
  </scstep>
  <scstep>
   <time name="diag">    3.30    3.30</time>
   <time name="diis">    7.83    7.83</time>
   <time name="orth">    0.31    0.31</time>
   <time name="total">   12.72   12.73</time>
   <energy>
    <i name="e_fr_energy">    -65.92541723 </i>
    <i name="e_wo_entrp">    -65.92541723 </i>
    <i name="e_0_energy">    -65.92541723 </i>
   </energy>
  </scstep>
  <scstep>
   <time name="diag">    3.30    3.30</time>
   <time name="diis">    7.14    7.14</time>
   <time name="orth">    0.31    0.31</time>
   <time name="total">   12.02   12.04</time>
   <energy>
    <i name="e_fr_energy">    -65.92541709 </i>
    <i name="e_wo_entrp">    -65.92541709 </i>
    <i name="e_0_energy">    -65.92541709 </i>
   </energy>
  </scstep>
  <scstep>
   <time name="diag">    3.34    3.35</time>
   <time name="diis">    6.79    6.79</time>
   <time name="orth">    0.31    0.31</time>
   <time name="total">   11.73   11.73</time>
   <energy>
    <i name="e_fr_energy">    -65.92541706 </i>
    <i name="e_wo_entrp">    -65.92541706 </i>
    <i name="e_0_energy">    -65.92541706 </i>
   </energy>
  </scstep>
  <scstep>
   <time name="diag">    3.38    3.38</time>
   <time name="diis">    6.79    6.79</time>
   <time name="orth">    0.31    0.31</time>
   <time name="total">   11.78   11.80</time>
   <energy>
    <i name="e_fr_energy">    -65.92541704 </i>
    <i name="e_wo_entrp">    -65.92541704 </i>
    <i name="e_0_energy">    -65.92541704 </i>
   </energy>
  </scstep>
  <scstep>
   <time name="diag">    3.30    3.30</time>
   <time name="diis">    6.80    6.80</time>
   <time name="orth">    0.34    0.34</time>
   <time name="total">   10.81   10.82</time>
   <energy>
    <i name="alphaZ">    277.80440176 </i>
    <i name="ewald"> -10977.36100656 </i>
    <i name="hartreedc">  -4074.69590935 </i>
    <i name="XCdc">     90.55701757 </i>
    <i name="pawpsdc">  14668.68134185 </i>
    <i name="pawaedc"> -14230.95066733 </i>
    <i name="eentropy">     -0.00000000 </i>
    <i name="bandstr">   -904.03588646 </i>
    <i name="atom">  15084.07529148 </i>
    <i name="e_fr_energy">    -65.92541705 </i>
    <i name="e_wo_entrp">    -65.92541705 </i>
    <i name="e_0_energy">    -65.92541705 </i>
   </energy>
  </scstep>
  <structure>
   <crystal>
    <varray name="basis" >
     <v>       0.00000000       6.54179361       6.54179361 </v>
     <v>       6.54179361       0.00000000       6.54179361 </v>
     <v>       6.54179361       6.54179361       0.00000000 </v>
    </varray>
    <i name="volume">    559.91294770 </i>
    <varray name="rec_basis" >
     <v>      -0.07643164       0.07643164       0.07643164 </v>
     <v>       0.07643164      -0.07643164       0.07643164 </v>
     <v>       0.07643164       0.07643164      -0.07643164 </v>
    </varray>
   </crystal>
   <varray name="positions" >
    <v>       0.24859428       0.25144069       0.25029412 </v>
    <v>       0.75121883       0.24990423       0.24995270 </v>
    <v>       0.24974603       0.74957542       0.25054301 </v>
    <v>       0.75068377       0.74943573       0.24905031 </v>
    <v>       0.24984131       0.24986265       0.75107769 </v>
    <v>       0.74917214       0.24974251       0.75002643 </v>
    <v>       0.25120280       0.74840766       0.75028821 </v>
    <v>       0.74998577       0.75060848       0.74905670 </v>
    <v>       0.99985281       0.00089526       0.00045304 </v>
    <v>       0.49948385       0.99976920       0.00194355 </v>
    <v>       0.99953963       0.50038148       0.00034469 </v>
    <v>       0.50045390       0.50065763       0.99965620 </v>
    <v>       0.99992529       0.00041396       0.50016771 </v>
    <v>       0.50036506       0.99947814       0.50077689 </v>
    <v>       0.99857831       0.49947040       0.50076889 </v>
    <v>       0.49979694       0.49963581       0.50086376 </v>
   </varray>
  </structure>
  <varray name="forces" >
   <v>      -0.01733903       0.02260923       0.00658997 </v>
   <v>      -0.01116459      -0.00654455      -0.02690914 </v>
   <v>      -0.00463036      -0.01136185      -0.00074101 </v>
   <v>       0.03331218       0.00450371       0.00465515 </v>
   <v>      -0.03114339      -0.00733104      -0.00424423 </v>
   <v>       0.00460527       0.01741803       0.00047626 </v>
   <v>       0.01780381      -0.00609267       0.02498801 </v>
   <v>       0.01338326      -0.01077460      -0.00529984 </v>
   <v>      -0.01626731       0.00366820      -0.01957425 </v>
   <v>      -0.01872687      -0.02636416      -0.00508428 </v>
   <v>      -0.00570632       0.01046530       0.00315344 </v>
   <v>       0.00795227       0.00549640      -0.01953471 </v>
   <v>      -0.00212286       0.00732703       0.00045206 </v>
   <v>       0.00901279      -0.02092202       0.00318062 </v>
   <v>       0.01592714       0.02677718       0.02766924 </v>
   <v>       0.00510402      -0.00887419       0.01022270 </v>
  </varray>
  <varray name="stress" >
   <v>     -18.45075148      -0.00059240      -0.00116931 </v>
   <v>      -0.00059245     -18.45334876      -0.00171831 </v>
   <v>      -0.00116955      -0.00171828     -18.46757466 </v>
  </varray>
  <energy>
   <i name="e_fr_energy">    -65.92541705 </i>
   <i name="e_wo_entrp">    -65.92541705 </i>
   <i name="e_0_energy">    -65.92541705 </i>
  </energy>
  <time name="totalsc">  480.72  481.26</time>
 </calculation>
 <calculation>
  <scstep>
   <time name="dav">   15.05   15.05</time>
   <time name="total">   16.33   16.33</time>
   <energy>
    <i name="alphaZ">    294.66461261 </i>
    <i name="ewald"> -11195.08942091 </i>
    <i name="hartreedc">  -4155.51462866 </i>
    <i name="XCdc">     99.27978280 </i>
    <i name="pawpsdc">  14668.67293564 </i>
    <i name="pawaedc"> -14230.94222679 </i>
    <i name="eentropy">     -0.00000000 </i>
    <i name="bandstr">   -636.33794523 </i>
    <i name="atom">  15084.07529148 </i>
    <i name="e_fr_energy">    -71.19159906 </i>
    <i name="e_wo_entrp">    -71.19159906 </i>
    <i name="e_0_energy">    -71.19159906 </i>
   </energy>
  </scstep>
  <scstep>
   <time name="diag">    3.26    3.26</time>
   <time name="diis">   11.42   11.43</time>
   <time name="orth">    0.31    0.31</time>
   <time name="total">   16.28   16.31</time>
   <energy>
    <i name="e_fr_energy">    -66.70194325 </i>
    <i name="e_wo_entrp">    -66.70194325 </i>
    <i name="e_0_energy">    -66.70194325 </i>
   </energy>
  </scstep>
  <scstep>
   <time name="diag">    3.29    3.29</time>
   <time name="diis">   10.77   10.78</time>
   <time name="orth">    0.31    0.31</time>
   <time name="total">   15.66   15.69</time>
   <energy>
    <i name="e_fr_energy">    -65.97264746 </i>
    <i name="e_wo_entrp">    -65.97264746 </i>
    <i name="e_0_energy">    -65.97264746 </i>
   </energy>
  </scstep>
  <scstep>
   <time name="diag">    3.28    3.28</time>
   <time name="diis">   14.09   14.10</time>
   <time name="orth">    0.31    0.31</time>
   <time name="total">   18.97   19.00</time>
   <energy>
    <i name="e_fr_energy">    -66.04930825 </i>
    <i name="e_wo_entrp">    -66.04930825 </i>
    <i name="e_0_energy">    -66.04930825 </i>
   </energy>
  </scstep>
  <scstep>
   <time name="diag">    3.28    3.28</time>
   <time name="diis">   12.19   12.20</time>
   <time name="orth">    0.31    0.31</time>
   <time name="total">   17.08   17.11</time>
   <energy>
    <i name="e_fr_energy">    -66.05612375 </i>
    <i name="e_wo_entrp">    -66.05612375 </i>
    <i name="e_0_energy">    -66.05612375 </i>
   </energy>
  </scstep>
  <scstep>
   <time name="diag">    3.30    3.30</time>
   <time name="diis">   13.66   13.67</time>
   <time name="orth">    0.31    0.31</time>
   <time name="total">   18.55   18.58</time>
   <energy>
    <i name="e_fr_energy">    -66.07680329 </i>
    <i name="e_wo_entrp">    -66.07680329 </i>
    <i name="e_0_energy">    -66.07680329 </i>
   </energy>
  </scstep>
  <scstep>
   <time name="diag">    3.29    3.30</time>
   <time name="diis">   16.54   16.55</time>
   <time name="orth">    0.31    0.31</time>
   <time name="total">   21.44   21.47</time>
   <energy>
    <i name="e_fr_energy">    -66.17672522 </i>
    <i name="e_wo_entrp">    -66.17672522 </i>
    <i name="e_0_energy">    -66.17672522 </i>
   </energy>
  </scstep>
  <scstep>
   <time name="diag">    3.29    3.29</time>
   <time name="diis">   10.82   10.82</time>
   <time name="orth">    0.31    0.31</time>
   <time name="total">   15.70   15.73</time>
   <energy>
    <i name="e_fr_energy">    -66.12080554 </i>
    <i name="e_wo_entrp">    -66.12080554 </i>
    <i name="e_0_energy">    -66.12080554 </i>
   </energy>
  </scstep>
  <scstep>
   <time name="diag">    3.30    3.30</time>
   <time name="diis">   13.23   13.24</time>
   <time name="orth">    0.31    0.31</time>
   <time name="total">   18.13   18.16</time>
   <energy>
    <i name="e_fr_energy">    -66.12203617 </i>
    <i name="e_wo_entrp">    -66.12203617 </i>
    <i name="e_0_energy">    -66.12203617 </i>
   </energy>
  </scstep>
  <scstep>
   <time name="diag">    3.29    3.29</time>
   <time name="diis">   12.74   12.75</time>
   <time name="orth">    0.31    0.31</time>
   <time name="total">   17.65   17.66</time>
   <energy>
    <i name="e_fr_energy">    -66.13454238 </i>
    <i name="e_wo_entrp">    -66.13454238 </i>
    <i name="e_0_energy">    -66.13454238 </i>
   </energy>
  </scstep>
  <scstep>
   <time name="diag">    3.29    3.29</time>
   <time name="diis">   16.90   16.91</time>
   <time name="orth">    0.31    0.31</time>
   <time name="total">   21.79   21.82</time>
   <energy>
    <i name="e_fr_energy">    -66.07399080 </i>
    <i name="e_wo_entrp">    -66.07399080 </i>
    <i name="e_0_energy">    -66.07399080 </i>
   </energy>
  </scstep>
  <scstep>
   <time name="diag">    3.29    3.29</time>
   <time name="diis">   16.28   16.29</time>
   <time name="orth">    0.31    0.31</time>
   <time name="total">   21.19   21.20</time>
   <energy>
    <i name="e_fr_energy">    -66.06135765 </i>
    <i name="e_wo_entrp">    -66.06135765 </i>
    <i name="e_0_energy">    -66.06135765 </i>
   </energy>
  </scstep>
  <scstep>
   <time name="diag">    3.36    3.36</time>
   <time name="diis">   12.21   12.22</time>
   <time name="orth">    0.31    0.31</time>
   <time name="total">   17.18   17.20</time>
   <energy>
    <i name="e_fr_energy">    -66.06124089 </i>
    <i name="e_wo_entrp">    -66.06124089 </i>
    <i name="e_0_energy">    -66.06124089 </i>
   </energy>
  </scstep>
  <scstep>
   <time name="diag">    3.37    3.37</time>
   <time name="diis">   16.12   16.13</time>
   <time name="orth">    0.31    0.31</time>
   <time name="total">   21.11   21.12</time>
   <energy>
    <i name="e_fr_energy">    -66.06122706 </i>
    <i name="e_wo_entrp">    -66.06122706 </i>
    <i name="e_0_energy">    -66.06122706 </i>
   </energy>
  </scstep>
  <scstep>
   <time name="diag">    3.29    3.29</time>
   <time name="diis">   11.98   11.99</time>
   <time name="orth">    0.34    0.34</time>
   <time name="total">   16.91   16.94</time>
   <energy>
    <i name="e_fr_energy">    -66.06100730 </i>
    <i name="e_wo_entrp">    -66.06100730 </i>
    <i name="e_0_energy">    -66.06100730 </i>
   </energy>
  </scstep>
  <scstep>
   <time name="diag">    3.35    3.36</time>
   <time name="diis">   11.89   11.90</time>
   <time name="orth">    0.31    0.31</time>
   <time name="total">   16.96   16.97</time>
   <energy>
    <i name="e_fr_energy">    -66.06101912 </i>
    <i name="e_wo_entrp">    -66.06101912 </i>
    <i name="e_0_energy">    -66.06101912 </i>
   </energy>
  </scstep>
  <scstep>
   <time name="diag">    3.33    3.33</time>
   <time name="diis">   13.98   13.99</time>
   <time name="orth">    0.31    0.31</time>
   <time name="total">   18.91   18.94</time>
   <energy>
    <i name="e_fr_energy">    -66.06101586 </i>
    <i name="e_wo_entrp">    -66.06101586 </i>
    <i name="e_0_energy">    -66.06101586 </i>
   </energy>
  </scstep>
  <scstep>
   <time name="diag">    3.30    3.30</time>
   <time name="diis">   11.86   11.87</time>
   <time name="orth">    0.33    0.33</time>
   <time name="total">   16.80   16.81</time>
   <energy>
    <i name="e_fr_energy">    -66.06098290 </i>
    <i name="e_wo_entrp">    -66.06098290 </i>
    <i name="e_0_energy">    -66.06098290 </i>
   </energy>
  </scstep>
  <scstep>
   <time name="diag">    3.42    3.42</time>
   <time name="diis">   11.01   11.02</time>
   <time name="orth">    0.31    0.31</time>
   <time name="total">   16.03   16.06</time>
   <energy>
    <i name="e_fr_energy">    -66.06097954 </i>
    <i name="e_wo_entrp">    -66.06097954 </i>
    <i name="e_0_energy">    -66.06097954 </i>
   </energy>
  </scstep>
  <scstep>
   <time name="diag">    3.31    3.31</time>
   <time name="diis">   11.88   11.89</time>
   <time name="orth">    0.31    0.31</time>
   <time name="total">   16.80   16.83</time>
   <energy>
    <i name="e_fr_energy">    -66.06097985 </i>
    <i name="e_wo_entrp">    -66.06097985 </i>
    <i name="e_0_energy">    -66.06097985 </i>
   </energy>
  </scstep>
  <scstep>
   <time name="diag">    3.45    3.45</time>
   <time name="diis">   11.34   11.35</time>
   <time name="orth">    0.31    0.31</time>
   <time name="total">   16.40   16.42</time>
   <energy>
    <i name="e_fr_energy">    -66.06098029 </i>
    <i name="e_wo_entrp">    -66.06098029 </i>
    <i name="e_0_energy">    -66.06098029 </i>
   </energy>
  </scstep>
  <scstep>
   <time name="diag">    3.36    3.36</time>
   <time name="diis">   12.02   12.02</time>
   <time name="orth">    0.31    0.31</time>
   <time name="total">   16.99   17.01</time>
   <energy>
    <i name="e_fr_energy">    -66.06098097 </i>
    <i name="e_wo_entrp">    -66.06098097 </i>
    <i name="e_0_energy">    -66.06098097 </i>
   </energy>
  </scstep>
  <scstep>
   <time name="diag">    3.36    3.36</time>
   <time name="diis">   13.43   13.44</time>
   <time name="orth">    0.31    0.31</time>
   <time name="total">   18.41   18.44</time>
   <energy>
    <i name="e_fr_energy">    -66.06098184 </i>
    <i name="e_wo_entrp">    -66.06098184 </i>
    <i name="e_0_energy">    -66.06098184 </i>
   </energy>
  </scstep>
  <scstep>
   <time name="diag">    3.40    3.40</time>
   <time name="diis">   11.07   11.08</time>
   <time name="orth">    0.31    0.31</time>
   <time name="total">   16.08   16.10</time>
   <energy>
    <i name="e_fr_energy">    -66.06098222 </i>
    <i name="e_wo_entrp">    -66.06098222 </i>
    <i name="e_0_energy">    -66.06098222 </i>
   </energy>
  </scstep>
  <scstep>
   <time name="diag">    3.37    3.37</time>
   <time name="diis">   10.32   10.33</time>
   <time name="orth">    0.31    0.31</time>
   <time name="total">   15.29   15.31</time>
   <energy>
    <i name="e_fr_energy">    -66.06098227 </i>
    <i name="e_wo_entrp">    -66.06098227 </i>
    <i name="e_0_energy">    -66.06098227 </i>
   </energy>
  </scstep>
  <scstep>
   <time name="diag">    3.33    3.33</time>
   <time name="diis">    7.09    7.09</time>
   <time name="orth">    0.31    0.31</time>
   <time name="total">   12.02   12.04</time>
   <energy>
    <i name="e_fr_energy">    -66.06098228 </i>
    <i name="e_wo_entrp">    -66.06098228 </i>
    <i name="e_0_energy">    -66.06098228 </i>
   </energy>
  </scstep>
  <scstep>
   <time name="diag">    3.31    3.31</time>
   <time name="diis">    6.73    6.74</time>
   <time name="orth">    0.33    0.33</time>
   <time name="total">   11.74   11.75</time>
   <energy>
    <i name="e_fr_energy">    -66.06098231 </i>
    <i name="e_wo_entrp">    -66.06098231 </i>
    <i name="e_0_energy">    -66.06098231 </i>
   </energy>
  </scstep>
  <scstep>
   <time name="diag">    3.43    3.43</time>
   <time name="diis">    6.73    6.73</time>
   <time name="orth">    0.31    0.31</time>
   <time name="total">   11.76   11.79</time>
   <energy>
    <i name="e_fr_energy">    -66.06098234 </i>
    <i name="e_wo_entrp">    -66.06098234 </i>
    <i name="e_0_energy">    -66.06098234 </i>
   </energy>
  </scstep>
  <scstep>
   <time name="diag">    3.34    3.34</time>
   <time name="diis">    6.71    6.72</time>
   <time name="orth">    0.31    0.31</time>
   <time name="total">   11.68   11.68</time>
   <energy>
    <i name="e_fr_energy">    -66.06098232 </i>
    <i name="e_wo_entrp">    -66.06098232 </i>
    <i name="e_0_energy">    -66.06098232 </i>
   </energy>
  </scstep>
  <scstep>
   <time name="diag">    3.32    3.32</time>
   <time name="diis">    6.67    6.67</time>
   <time name="orth">    0.34    0.34</time>
   <time name="total">   11.68   11.70</time>
   <energy>
    <i name="e_fr_energy">    -66.06098230 </i>
    <i name="e_wo_entrp">    -66.06098230 </i>
    <i name="e_0_energy">    -66.06098230 </i>
   </energy>
  </scstep>
  <scstep>
   <time name="diag">    3.44    3.44</time>
   <time name="diis">    6.58    6.58</time>
   <time name="orth">    0.31    0.31</time>
   <time name="total">   10.71   10.72</time>
   <energy>
    <i name="alphaZ">    294.66461261 </i>
    <i name="ewald"> -11195.08942091 </i>
    <i name="hartreedc">  -3966.30125008 </i>
    <i name="XCdc">     92.52544766 </i>
    <i name="pawpsdc">  15035.12503629 </i>
    <i name="pawaedc"> -14599.96022252 </i>
    <i name="eentropy">     -0.00000000 </i>
    <i name="bandstr">   -811.10047682 </i>
    <i name="atom">  15084.07529148 </i>
    <i name="e_fr_energy">    -66.06098230 </i>
    <i name="e_wo_entrp">    -66.06098230 </i>
    <i name="e_0_energy">    -66.06098230 </i>
   </energy>
  </scstep>
  <structure>
   <crystal>
    <varray name="basis" >
     <v>      -0.00001215       6.41457999       6.41448193 </v>
     <v>       6.41460168      -0.00001593       6.41448572 </v>
     <v>       6.41460566       6.41458775      -0.00001990 </v>
    </varray>
    <i name="volume">    527.87567565 </i>
    <varray name="rec_basis" >
     <v>      -0.07794692       0.07794738       0.07794852 </v>
     <v>       0.07794711      -0.07794709       0.07794843 </v>
     <v>       0.07794702       0.07794719      -0.07794823 </v>
    </varray>
   </crystal>
   <varray name="positions" >
    <v>       0.24859428       0.25144069       0.25029412 </v>
    <v>       0.75121883       0.24990423       0.24995270 </v>
    <v>       0.24974603       0.74957542       0.25054301 </v>
    <v>       0.75068377       0.74943573       0.24905031 </v>
    <v>       0.24984131       0.24986265       0.75107769 </v>
    <v>       0.74917214       0.24974251       0.75002643 </v>
    <v>       0.25120280       0.74840766       0.75028821 </v>
    <v>       0.74998577       0.75060848       0.74905670 </v>
    <v>       0.99985281       0.00089526       0.00045304 </v>
    <v>       0.49948385       0.99976920       0.00194355 </v>
    <v>       0.99953963       0.50038148       0.00034469 </v>
    <v>       0.50045390       0.50065763       0.99965620 </v>
    <v>       0.99992529       0.00041396       0.50016771 </v>
    <v>       0.50036506       0.99947814       0.50077689 </v>
    <v>       0.99857831       0.49947040       0.50076889 </v>
    <v>       0.49979694       0.49963581       0.50086376 </v>
   </varray>
  </structure>
  <varray name="forces" >
   <v>      -0.02070565       0.03121896       0.01085408 </v>
   <v>      -0.00660902      -0.01255639      -0.03339567 </v>
   <v>      -0.00412054      -0.01021545      -0.00476650 </v>
   <v>       0.04187083       0.00644393       0.00570321 </v>
   <v>      -0.03438265      -0.01004175      -0.00230421 </v>
   <v>       0.00681367       0.02384056      -0.00215850 </v>
   <v>       0.02777294      -0.01317519       0.02642863 </v>
   <v>       0.01865644      -0.00435964      -0.00357254 </v>
   <v>      -0.02582260       0.00040662      -0.02405199 </v>
   <v>      -0.02268031      -0.03112621      -0.00646133 </v>
   <v>      -0.01009698       0.00536812       0.00523836 </v>
   <v>       0.00688916       0.01297017      -0.02332084 </v>
   <v>      -0.00440674       0.01479357       0.00068378 </v>
   <v>       0.00714956      -0.03263038       0.00569756 </v>
   <v>       0.01984589       0.03292115       0.03242458 </v>
   <v>      -0.00017399      -0.01385806       0.01300138 </v>
  </varray>
  <varray name="stress" >
   <v>       6.22606410      -0.00059723      -0.00094808 </v>
   <v>      -0.00059765       6.22656881      -0.00150408 </v>
   <v>      -0.00094822      -0.00150419       6.22875863 </v>
  </varray>
  <energy>
   <i name="e_fr_energy">    -66.06098230 </i>
   <i name="e_wo_entrp">    -66.06098230 </i>
   <i name="e_0_energy">    -66.06098230 </i>
  </energy>
  <time name="totalsc">  530.12  530.87</time>
 </calculation>
 <calculation>
  <scstep>
   <time name="dav">   15.23   15.24</time>
   <time name="total">   16.51   16.52</time>
   <energy>
    <i name="alphaZ">    290.73753377 </i>
    <i name="ewald"> -11145.13345680 </i>
    <i name="hartreedc">  -3948.60275962 </i>
    <i name="XCdc">     90.56107782 </i>
    <i name="pawpsdc">  15035.11243827 </i>
    <i name="pawaedc"> -14599.94759292 </i>
    <i name="eentropy">     -0.00000000 </i>
    <i name="bandstr">   -873.13502526 </i>
    <i name="atom">  15084.07529148 </i>
    <i name="e_fr_energy">    -66.33249326 </i>
    <i name="e_wo_entrp">    -66.33249326 </i>
    <i name="e_0_energy">    -66.33249326 </i>
   </energy>
  </scstep>
  <scstep>
   <time name="diag">    3.28    3.28</time>
   <time name="diis">   11.19   11.20</time>
   <time name="orth">    0.31    0.31</time>
   <time name="total">   16.07   16.09</time>
   <energy>
    <i name="e_fr_energy">    -66.11190582 </i>
    <i name="e_wo_entrp">    -66.11190582 </i>
    <i name="e_0_energy">    -66.11190582 </i>
   </energy>
  </scstep>
  <scstep>
   <time name="diag">    3.31    3.31</time>
   <time name="diis">   10.83   10.83</time>
   <time name="orth">    0.31    0.31</time>
   <time name="total">   15.73   15.75</time>
   <energy>
    <i name="e_fr_energy">    -66.07113285 </i>
    <i name="e_wo_entrp">    -66.07113285 </i>
    <i name="e_0_energy">    -66.07113285 </i>
   </energy>
  </scstep>
  <scstep>
   <time name="diag">    3.46    3.46</time>
   <time name="diis">   14.21   14.22</time>
   <time name="orth">    0.31    0.31</time>
   <time name="total">   19.27   19.29</time>
   <energy>
    <i name="e_fr_energy">    -66.07440813 </i>
    <i name="e_wo_entrp">    -66.07440813 </i>
    <i name="e_0_energy">    -66.07440813 </i>
   </energy>
  </scstep>
  <scstep>
   <time name="diag">    3.28    3.28</time>
   <time name="diis">   11.97   11.97</time>
   <time name="orth">    0.31    0.31</time>
   <time name="total">   16.84   16.89</time>
   <energy>
    <i name="e_fr_energy">    -66.07467822 </i>
    <i name="e_wo_entrp">    -66.07467822 </i>
    <i name="e_0_energy">    -66.07467822 </i>
   </energy>
  </scstep>
  <scstep>
   <time name="diag">    3.28    3.28</time>
   <time name="diis">   14.86   14.87</time>
   <time name="orth">    0.31    0.31</time>
   <time name="total">   19.74   19.77</time>
   <energy>
    <i name="e_fr_energy">    -66.07491111 </i>
    <i name="e_wo_entrp">    -66.07491111 </i>
    <i name="e_0_energy">    -66.07491111 </i>
   </energy>
  </scstep>
  <scstep>
   <time name="diag">    3.29    3.29</time>
   <time name="diis">   13.34   13.35</time>
   <time name="orth">    0.31    0.31</time>
   <time name="total">   18.23   18.26</time>
   <energy>
    <i name="e_fr_energy">    -66.07560225 </i>
    <i name="e_wo_entrp">    -66.07560225 </i>
    <i name="e_0_energy">    -66.07560225 </i>
   </energy>
  </scstep>
  <scstep>
   <time name="diag">    3.31    3.31</time>
   <time name="diis">   10.79   10.80</time>
   <time name="orth">    0.31    0.31</time>
   <time name="total">   15.70   15.72</time>
   <energy>
    <i name="e_fr_energy">    -66.07507207 </i>
    <i name="e_wo_entrp">    -66.07507207 </i>
    <i name="e_0_energy">    -66.07507207 </i>
   </energy>
  </scstep>
  <scstep>
   <time name="diag">    3.28    3.28</time>
   <time name="diis">   10.83   10.84</time>
   <time name="orth">    0.31    0.31</time>
   <time name="total">   15.71   15.73</time>
   <energy>
    <i name="e_fr_energy">    -66.07476574 </i>
    <i name="e_wo_entrp">    -66.07476574 </i>
    <i name="e_0_energy">    -66.07476574 </i>
   </energy>
  </scstep>
  <scstep>
   <time name="diag">    3.29    3.29</time>
   <time name="diis">   13.23   13.23</time>
   <time name="orth">    0.31    0.31</time>
   <time name="total">   18.13   18.14</time>
   <energy>
    <i name="e_fr_energy">    -66.07478579 </i>
    <i name="e_wo_entrp">    -66.07478579 </i>
    <i name="e_0_energy">    -66.07478579 </i>
   </energy>
  </scstep>
  <scstep>
   <time name="diag">    3.30    3.30</time>
   <time name="diis">   15.21   15.22</time>
   <time name="orth">    0.31    0.32</time>
   <time name="total">   20.14   20.19</time>
   <energy>
    <i name="e_fr_energy">    -66.07478568 </i>
    <i name="e_wo_entrp">    -66.07478568 </i>
    <i name="e_0_energy">    -66.07478568 </i>
   </energy>
  </scstep>
  <scstep>
   <time name="diag">    3.29    3.29</time>
   <time name="diis">   13.54   13.55</time>
   <time name="orth">    0.31    0.31</time>
   <time name="total">   18.43   18.45</time>
   <energy>
    <i name="e_fr_energy">    -66.07474472 </i>
    <i name="e_wo_entrp">    -66.07474472 </i>
    <i name="e_0_energy">    -66.07474472 </i>
   </energy>
  </scstep>
  <scstep>
   <time name="diag">    3.32    3.32</time>
   <time name="diis">   12.71   12.72</time>
   <time name="orth">    0.31    0.31</time>
   <time name="total">   17.63   17.65</time>
   <energy>
    <i name="e_fr_energy">    -66.07473756 </i>
    <i name="e_wo_entrp">    -66.07473756 </i>
    <i name="e_0_energy">    -66.07473756 </i>
   </energy>
  </scstep>
  <scstep>
   <time name="diag">    3.29    3.29</time>
   <time name="diis">   14.06   14.07</time>
   <time name="orth">    0.31    0.31</time>
   <time name="total">   18.97   18.98</time>
   <energy>
    <i name="e_fr_energy">    -66.07473882 </i>
    <i name="e_wo_entrp">    -66.07473882 </i>
    <i name="e_0_energy">    -66.07473882 </i>
   </energy>
  </scstep>
  <scstep>
   <time name="diag">    3.29    3.29</time>
   <time name="diis">   11.48   11.49</time>
   <time name="orth">    0.31    0.31</time>
   <time name="total">   16.37   16.39</time>
   <energy>
    <i name="e_fr_energy">    -66.07473880 </i>
    <i name="e_wo_entrp">    -66.07473880 </i>
    <i name="e_0_energy">    -66.07473880 </i>
   </energy>
  </scstep>
  <scstep>
   <time name="diag">    3.29    3.29</time>
   <time name="diis">   13.10   13.11</time>
   <time name="orth">    0.31    0.31</time>
   <time name="total">   18.00   18.01</time>
   <energy>
    <i name="e_fr_energy">    -66.07473952 </i>
    <i name="e_wo_entrp">    -66.07473952 </i>
    <i name="e_0_energy">    -66.07473952 </i>
   </energy>
  </scstep>
  <scstep>
   <time name="diag">    3.30    3.30</time>
   <time name="diis">   10.93   10.94</time>
   <time name="orth">    0.31    0.31</time>
   <time name="total">   15.83   15.86</time>
   <energy>
    <i name="e_fr_energy">    -66.07474030 </i>
    <i name="e_wo_entrp">    -66.07474030 </i>
    <i name="e_0_energy">    -66.07474030 </i>
   </energy>
  </scstep>
  <scstep>
   <time name="diag">    3.29    3.29</time>
   <time name="diis">   12.12   12.13</time>
   <time name="orth">    0.31    0.31</time>
   <time name="total">   17.03   17.04</time>
   <energy>
    <i name="e_fr_energy">    -66.07474014 </i>
    <i name="e_wo_entrp">    -66.07474014 </i>
    <i name="e_0_energy">    -66.07474014 </i>
   </energy>
  </scstep>
  <scstep>
   <time name="diag">    3.29    3.29</time>
   <time name="diis">    8.10    8.10</time>
   <time name="orth">    0.31    0.31</time>
   <time name="total">   12.07   12.09</time>
   <energy>
    <i name="alphaZ">    290.73753377 </i>
    <i name="ewald"> -11145.13345680 </i>
    <i name="hartreedc">  -3991.01970660 </i>
    <i name="XCdc">     92.06831722 </i>
    <i name="pawpsdc">  14945.21436079 </i>
    <i name="pawaedc"> -14509.42893747 </i>
    <i name="eentropy">     -0.00000000 </i>
    <i name="bandstr">   -832.58814251 </i>
    <i name="atom">  15084.07529148 </i>
    <i name="e_fr_energy">    -66.07474013 </i>
    <i name="e_wo_entrp">    -66.07474013 </i>
    <i name="e_0_energy">    -66.07474013 </i>
   </energy>
  </scstep>
  <structure>
   <crystal>
    <varray name="basis" >
     <v>      -0.00000940       6.44332871       6.44325281 </v>
     <v>       6.44334550      -0.00001233       6.44325574 </v>
     <v>       6.44334858       6.44333472      -0.00001541 </v>
    </varray>
    <i name="volume">    535.00585032 </i>
    <varray name="rec_basis" >
     <v>      -0.07759925       0.07759960       0.07760048 </v>
     <v>       0.07759940      -0.07759938       0.07760041 </v>
     <v>       0.07759933       0.07759946      -0.07760026 </v>
    </varray>
   </crystal>
   <varray name="positions" >
    <v>       0.24859428       0.25144069       0.25029412 </v>
    <v>       0.75121883       0.24990423       0.24995270 </v>
    <v>       0.24974603       0.74957542       0.25054301 </v>
    <v>       0.75068377       0.74943573       0.24905031 </v>
    <v>       0.24984131       0.24986265       0.75107769 </v>
    <v>       0.74917214       0.24974251       0.75002643 </v>
    <v>       0.25120280       0.74840766       0.75028821 </v>
    <v>       0.74998577       0.75060848       0.74905670 </v>
    <v>       0.99985281       0.00089526       0.00045304 </v>
    <v>       0.49948385       0.99976920       0.00194355 </v>
    <v>       0.99953963       0.50038148       0.00034469 </v>
    <v>       0.50045390       0.50065763       0.99965620 </v>
    <v>       0.99992529       0.00041396       0.50016771 </v>
    <v>       0.50036506       0.99947814       0.50077689 </v>
    <v>       0.99857831       0.49947040       0.50076889 </v>
    <v>       0.49979694       0.49963581       0.50086376 </v>
   </varray>
  </structure>
  <varray name="forces" >
   <v>      -0.01988458       0.02916759       0.00982601 </v>
   <v>      -0.00769199      -0.01111438      -0.03184645 </v>
   <v>      -0.00423225      -0.01049217      -0.00379127 </v>
   <v>       0.03983487       0.00598221       0.00545100 </v>
   <v>      -0.03360038      -0.00938795      -0.00277652 </v>
   <v>       0.00629820       0.02230908      -0.00152019 </v>
   <v>       0.02539456      -0.01147015       0.02608903 </v>
   <v>       0.01739944      -0.00589859      -0.00399737 </v>
   <v>      -0.02354377       0.00118008      -0.02300615 </v>
   <v>      -0.02178518      -0.03001217      -0.00611492 </v>
   <v>      -0.00905617       0.00661325       0.00473189 </v>
   <v>       0.00713731       0.01116770      -0.02244337 </v>
   <v>      -0.00386984       0.01298985       0.00061842 </v>
   <v>       0.00759817      -0.02983858       0.00509283 </v>
   <v>       0.01890221       0.03148212       0.03133111 </v>
   <v>       0.00109939      -0.01267789       0.01235593 </v>
  </varray>
  <varray name="stress" >
   <v>      -0.05001582      -0.00055806      -0.00097835 </v>
   <v>      -0.00055800      -0.05033610      -0.00157104 </v>
   <v>      -0.00097835      -0.00157125      -0.05278081 </v>
  </varray>
  <energy>
   <i name="e_fr_energy">    -66.07474013 </i>
   <i name="e_wo_entrp">    -66.07474013 </i>
   <i name="e_0_energy">    -66.07474013 </i>
  </energy>
  <time name="totalsc">  344.12  344.69</time>
 </calculation>
 <calculation>
  <scstep>
   <time name="dav">   14.92   14.93</time>
   <time name="total">   16.20   16.20</time>
   <energy>
    <i name="alphaZ">    290.76960473 </i>
    <i name="ewald"> -11145.54324458 </i>
    <i name="hartreedc">  -3991.16679812 </i>
    <i name="XCdc">     92.08447323 </i>
    <i name="pawpsdc">  14945.31863937 </i>
    <i name="pawaedc"> -14509.53372225 </i>
    <i name="eentropy">     -0.00000000 </i>
    <i name="bandstr">   -832.07900306 </i>
    <i name="atom">  15084.07529148 </i>
    <i name="e_fr_energy">    -66.07475920 </i>
    <i name="e_wo_entrp">    -66.07475920 </i>
    <i name="e_0_energy">    -66.07475920 </i>
   </energy>
  </scstep>
  <scstep>
   <time name="diag">    3.31    3.31</time>
   <time name="diis">   11.43   11.43</time>
   <time name="orth">    0.31    0.31</time>
   <time name="total">   16.33   16.36</time>
   <energy>
    <i name="e_fr_energy">    -66.07473990 </i>
    <i name="e_wo_entrp">    -66.07473990 </i>
    <i name="e_0_energy">    -66.07473990 </i>
   </energy>
  </scstep>
  <scstep>
   <time name="diag">    3.28    3.28</time>
   <time name="diis">   10.85   10.86</time>
   <time name="orth">    0.33    0.33</time>
   <time name="total">   15.81   15.84</time>
   <energy>
    <i name="e_fr_energy">    -66.07473707 </i>
    <i name="e_wo_entrp">    -66.07473707 </i>
    <i name="e_0_energy">    -66.07473707 </i>
   </energy>
  </scstep>
  <scstep>
   <time name="diag">    3.31    3.31</time>
   <time name="diis">   14.15   14.16</time>
   <time name="orth">    0.31    0.31</time>
   <time name="total">   19.06   19.08</time>
   <energy>
    <i name="e_fr_energy">    -66.07473804 </i>
    <i name="e_wo_entrp">    -66.07473804 </i>
    <i name="e_0_energy">    -66.07473804 </i>
   </energy>
  </scstep>
  <scstep>
   <time name="diag">    3.29    3.29</time>
   <time name="diis">   11.73   11.73</time>
   <time name="orth">    0.31    0.31</time>
   <time name="total">   16.61   16.63</time>
   <energy>
    <i name="e_fr_energy">    -66.07473810 </i>
    <i name="e_wo_entrp">    -66.07473810 </i>
    <i name="e_0_energy">    -66.07473810 </i>
   </energy>
  </scstep>
  <scstep>
   <time name="diag">    3.31    3.31</time>
   <time name="diis">   10.84   10.85</time>
   <time name="orth">    0.31    0.31</time>
   <time name="total">   15.75   15.78</time>
   <energy>
    <i name="e_fr_energy">    -66.07473834 </i>
    <i name="e_wo_entrp">    -66.07473834 </i>
    <i name="e_0_energy">    -66.07473834 </i>
   </energy>
  </scstep>
  <scstep>
   <time name="diag">    3.31    3.31</time>
   <time name="diis">    9.04    9.05</time>
   <time name="orth">    0.31    0.31</time>
   <time name="total">   13.96   13.98</time>
   <energy>
    <i name="e_fr_energy">    -66.07473867 </i>
    <i name="e_wo_entrp">    -66.07473867 </i>
    <i name="e_0_energy">    -66.07473867 </i>
   </energy>
  </scstep>
  <scstep>
   <time name="diag">    3.30    3.30</time>
   <time name="diis">    8.82    8.83</time>
   <time name="orth">    0.31    0.31</time>
   <time name="total">   13.72   13.74</time>
   <energy>
    <i name="e_fr_energy">    -66.07473863 </i>
    <i name="e_wo_entrp">    -66.07473863 </i>
    <i name="e_0_energy">    -66.07473863 </i>
   </energy>
  </scstep>
  <scstep>
   <time name="diag">    3.29    3.29</time>
   <time name="diis">    7.05    7.05</time>
   <time name="orth">    0.31    0.31</time>
   <time name="total">   11.95   11.98</time>
   <energy>
    <i name="e_fr_energy">    -66.07473859 </i>
    <i name="e_wo_entrp">    -66.07473859 </i>
    <i name="e_0_energy">    -66.07473859 </i>
   </energy>
  </scstep>
  <scstep>
   <time name="diag">    3.29    3.29</time>
   <time name="diis">    6.51    6.51</time>
   <time name="orth">    0.31    0.31</time>
   <time name="total">   11.42   11.42</time>
   <energy>
    <i name="e_fr_energy">    -66.07473861 </i>
    <i name="e_wo_entrp">    -66.07473861 </i>
    <i name="e_0_energy">    -66.07473861 </i>
   </energy>
  </scstep>
  <scstep>
   <time name="diag">    3.36    3.36</time>
   <time name="diis">    6.48    6.49</time>
   <time name="orth">    0.31    0.31</time>
   <time name="total">   11.45   11.47</time>
   <energy>
    <i name="e_fr_energy">    -66.07473859 </i>
    <i name="e_wo_entrp">    -66.07473859 </i>
    <i name="e_0_energy">    -66.07473859 </i>
   </energy>
  </scstep>
  <scstep>
   <time name="diag">    3.29    3.29</time>
   <time name="diis">    6.46    6.46</time>
   <time name="orth">    0.31    0.31</time>
   <time name="total">   10.42   10.44</time>
   <energy>
    <i name="alphaZ">    290.76960473 </i>
    <i name="ewald"> -11145.54324458 </i>
    <i name="hartreedc">  -3990.77518643 </i>
    <i name="XCdc">     92.07045731 </i>
    <i name="pawpsdc">  14946.74607962 </i>
    <i name="pawaedc"> -14510.97127849 </i>
    <i name="eentropy">     -0.00000000 </i>
    <i name="bandstr">   -832.44646222 </i>
    <i name="atom">  15084.07529148 </i>
    <i name="e_fr_energy">    -66.07473858 </i>
    <i name="e_wo_entrp">    -66.07473858 </i>
    <i name="e_0_energy">    -66.07473858 </i>
   </energy>
  </scstep>
  <structure>
   <crystal>
    <varray name="basis" >
     <v>      -0.00000942       6.44309184       6.44301576 </v>
     <v>       6.44310866      -0.00001236       6.44301869 </v>
     <v>       6.44311175       6.44309786      -0.00001544 </v>
    </varray>
    <i name="volume">    534.94684086 </i>
    <varray name="rec_basis" >
     <v>      -0.07760210       0.07760246       0.07760334 </v>
     <v>       0.07760225      -0.07760224       0.07760327 </v>
     <v>       0.07760218       0.07760231      -0.07760311 </v>
    </varray>
   </crystal>
   <varray name="positions" >
    <v>       0.24859428       0.25144069       0.25029412 </v>
    <v>       0.75121883       0.24990423       0.24995270 </v>
    <v>       0.24974603       0.74957542       0.25054301 </v>
    <v>       0.75068377       0.74943573       0.24905031 </v>
    <v>       0.24984131       0.24986265       0.75107769 </v>
    <v>       0.74917214       0.24974251       0.75002643 </v>
    <v>       0.25120280       0.74840766       0.75028821 </v>
    <v>       0.74998577       0.75060848       0.74905670 </v>
    <v>       0.99985281       0.00089526       0.00045304 </v>
    <v>       0.49948385       0.99976920       0.00194355 </v>
    <v>       0.99953963       0.50038148       0.00034469 </v>
    <v>       0.50045390       0.50065763       0.99965620 </v>
    <v>       0.99992529       0.00041396       0.50016771 </v>
    <v>       0.50036506       0.99947814       0.50077689 </v>
    <v>       0.99857831       0.49947040       0.50076889 </v>
    <v>       0.49979694       0.49963581       0.50086376 </v>
   </varray>
  </structure>
  <varray name="forces" >
   <v>      -0.01989483       0.02918850       0.00983489 </v>
   <v>      -0.00768297      -0.01112872      -0.03186233 </v>
   <v>      -0.00423120      -0.01048967      -0.00379949 </v>
   <v>       0.03985525       0.00598619       0.00545318 </v>
   <v>      -0.03360896      -0.00939539      -0.00277208 </v>
   <v>       0.00630276       0.02232433      -0.00152583 </v>
   <v>       0.02541737      -0.01148793       0.02609338 </v>
   <v>       0.01741141      -0.00588366      -0.00399337 </v>
   <v>      -0.02356178       0.00117228      -0.02301457 </v>
   <v>      -0.02179341      -0.03002029      -0.00611594 </v>
   <v>      -0.00906461       0.00660293       0.00473439 </v>
   <v>       0.00713368       0.01118236      -0.02245037 </v>
   <v>      -0.00387417       0.01300383       0.00061879 </v>
   <v>       0.00759324      -0.02986138       0.00509691 </v>
   <v>       0.01890940       0.03149379       0.03134000 </v>
   <v>       0.00108883      -0.01268719       0.01236247 </v>
  </varray>
  <varray name="stress" >
   <v>       0.05788926      -0.00056217      -0.00098300 </v>
   <v>      -0.00056248       0.05757363      -0.00155619 </v>
   <v>      -0.00098272      -0.00155635       0.05534610 </v>
  </varray>
  <energy>
[...]
   <v>      -0.00905608       0.00661290       0.00473120 </v>
   <v>       0.00713567       0.01116783      -0.02244268 </v>
   <v>      -0.00386971       0.01298926       0.00061866 </v>
   <v>       0.00759680      -0.02983859       0.00509295 </v>
   <v>       0.01890188       0.03148178       0.03132982 </v>
   <v>       0.00109901      -0.01267738       0.01235683 </v>
  </varray>
  <varray name="stress" >
   <v>       0.00741160      -0.00057397      -0.00099564 </v>
   <v>      -0.00057387       0.00706280      -0.00157849 </v>
   <v>      -0.00099572      -0.00157854       0.00472746 </v>
  </varray>
  <energy>
   <i name="e_fr_energy">    -66.07474025 </i>
   <i name="e_wo_entrp">    -66.07474025 </i>
   <i name="e_0_energy">    -66.07474025 </i>
  </energy>
  <time name="totalsc">   61.47   61.57</time>
 </calculation>
 <calculation>
  <scstep>
   <time name="dav">    8.68    8.68</time>
   <time name="total">    9.95    9.95</time>
   <energy>
    <i name="alphaZ">    290.73753444 </i>
    <i name="ewald"> -11145.13346536 </i>
    <i name="hartreedc">  -3990.97803912 </i>
    <i name="XCdc">     92.06670977 </i>
    <i name="pawpsdc">  14946.01899283 </i>
    <i name="pawaedc"> -14510.23919025 </i>
    <i name="eentropy">     -0.00000000 </i>
    <i name="bandstr">   -832.62257404 </i>
    <i name="atom">  15084.07529148 </i>
    <i name="e_fr_energy">    -66.07474025 </i>
    <i name="e_wo_entrp">    -66.07474025 </i>
    <i name="e_0_energy">    -66.07474025 </i>
   </energy>
  </scstep>
  <scstep>
   <time name="diag">    3.28    3.28</time>
   <time name="diis">    3.69    3.69</time>
   <time name="orth">    0.31    0.31</time>
   <time name="total">    8.57    8.59</time>
   <energy>
    <i name="e_fr_energy">    -66.07474025 </i>
    <i name="e_wo_entrp">    -66.07474025 </i>
    <i name="e_0_energy">    -66.07474025 </i>
   </energy>
  </scstep>
  <scstep>
   <time name="diag">    3.28    3.28</time>
   <time name="diis">    3.69    3.69</time>
   <time name="orth">    0.32    0.32</time>
   <time name="total">    8.61    8.63</time>
   <energy>
    <i name="e_fr_energy">    -66.07474025 </i>
    <i name="e_wo_entrp">    -66.07474025 </i>
    <i name="e_0_energy">    -66.07474025 </i>
   </energy>
  </scstep>
  <scstep>
   <time name="diag">    3.28    3.28</time>
   <time name="diis">    3.71    3.71</time>
   <time name="orth">    0.31    0.31</time>
   <time name="total">    8.59    8.62</time>
   <energy>
    <i name="e_fr_energy">    -66.07474025 </i>
    <i name="e_wo_entrp">    -66.07474025 </i>
    <i name="e_0_energy">    -66.07474025 </i>
   </energy>
  </scstep>
  <scstep>
   <time name="diag">    3.29    3.29</time>
   <time name="diis">    3.70    3.70</time>
   <time name="orth">    0.31    0.31</time>
   <time name="total">    7.67    7.68</time>
   <energy>
    <i name="alphaZ">    290.73753444 </i>
    <i name="ewald"> -11145.13346536 </i>
    <i name="hartreedc">  -3990.97808253 </i>
    <i name="XCdc">     92.06671140 </i>
    <i name="pawpsdc">  14946.01898304 </i>
    <i name="pawaedc"> -14510.23917992 </i>
    <i name="eentropy">     -0.00000000 </i>
    <i name="bandstr">   -832.62253279 </i>
    <i name="atom">  15084.07529148 </i>
    <i name="e_fr_energy">    -66.07474025 </i>
    <i name="e_wo_entrp">    -66.07474025 </i>
    <i name="e_0_energy">    -66.07474025 </i>
   </energy>
  </scstep>
  <structure>
   <crystal>
    <varray name="basis" >
     <v>      -0.00000940       6.44332871       6.44325281 </v>
     <v>       6.44334549      -0.00001233       6.44325574 </v>
     <v>       6.44334857       6.44333471      -0.00001541 </v>
    </varray>
    <i name="volume">    535.00584908 </i>
    <varray name="rec_basis" >
     <v>      -0.07759925       0.07759960       0.07760048 </v>
     <v>       0.07759940      -0.07759938       0.07760041 </v>
     <v>       0.07759933       0.07759946      -0.07760026 </v>
    </varray>
   </crystal>
   <varray name="positions" >
    <v>       0.24859428       0.25144069       0.25029412 </v>
    <v>       0.75121883       0.24990423       0.24995270 </v>
    <v>       0.24974603       0.74957542       0.25054301 </v>
    <v>       0.75068377       0.74943573       0.24905031 </v>
    <v>       0.24984131       0.24986265       0.75107769 </v>
    <v>       0.74917214       0.24974251       0.75002643 </v>
    <v>       0.25120280       0.74840766       0.75028821 </v>
    <v>       0.74998577       0.75060848       0.74905670 </v>
    <v>       0.99985281       0.00089526       0.00045304 </v>
    <v>       0.49948385       0.99976920       0.00194355 </v>
    <v>       0.99953963       0.50038148       0.00034469 </v>
    <v>       0.50045390       0.50065763       0.99965620 </v>
    <v>       0.99992529       0.00041396       0.50016771 </v>
    <v>       0.50036506       0.99947814       0.50077689 </v>
    <v>       0.99857831       0.49947040       0.50076889 </v>
    <v>       0.49979694       0.49963581       0.50086376 </v>
   </varray>
  </structure>
  <varray name="forces" >
   <v>      -0.01988841       0.02917186       0.00982649 </v>
   <v>      -0.00769188      -0.01111707      -0.03184978 </v>
   <v>      -0.00423215      -0.01049188      -0.00379152 </v>
   <v>       0.03983887       0.00598233       0.00545110 </v>
   <v>      -0.03360274      -0.00939018      -0.00277596 </v>
   <v>       0.00629856       0.02231193      -0.00152058 </v>
   <v>       0.02539800      -0.01147420       0.02609079 </v>
   <v>       0.01740115      -0.00589610      -0.00399688 </v>
   <v>      -0.02354326       0.00117868      -0.02300629 </v>
   <v>      -0.02178572      -0.03001115      -0.00611417 </v>
   <v>      -0.00905610       0.00661292       0.00473122 </v>
   <v>       0.00713570       0.01116782      -0.02244269 </v>
   <v>      -0.00386974       0.01298927       0.00061868 </v>
   <v>       0.00759683      -0.02983861       0.00509293 </v>
   <v>       0.01890187       0.03148181       0.03132985 </v>
   <v>       0.00109903      -0.01267742       0.01235680 </v>
  </varray>
  <varray name="stress" >
   <v>       0.00758601      -0.00057364      -0.00099588 </v>
   <v>      -0.00057361       0.00723776      -0.00157833 </v>
   <v>      -0.00099569      -0.00157828       0.00490204 </v>
  </varray>
  <energy>
   <i name="e_fr_energy">    -66.07474025 </i>
   <i name="e_wo_entrp">    -66.07474025 </i>
   <i name="e_0_energy">    -66.07474025 </i>
  </energy>
  <time name="totalsc">   61.21   61.36</time>
 </calculation>
 <calculation>
  <scstep>
   <time name="dav">   14.96   14.97</time>
   <time name="total">   16.22   16.22</time>
   <energy>
    <i name="alphaZ">    277.80440176 </i>
    <i name="ewald"> -10977.36100656 </i>
    <i name="hartreedc">  -3930.90018241 </i>
    <i name="XCdc">     85.45235523 </i>
    <i name="pawpsdc">  14946.01898330 </i>
    <i name="pawaedc"> -14510.23918019 </i>
    <i name="eentropy">     -0.00000000 </i>
    <i name="bandstr">  -1043.70219547 </i>
    <i name="atom">  15084.07529148 </i>
    <i name="e_fr_energy">    -68.85153288 </i>
    <i name="e_wo_entrp">    -68.85153288 </i>
    <i name="e_0_energy">    -68.85153288 </i>
   </energy>
  </scstep>
  <scstep>
   <time name="diag">    3.31    3.31</time>
   <time name="diis">   11.23   11.23</time>
   <time name="orth">    0.31    0.31</time>
   <time name="total">   16.11   16.14</time>
   <energy>
    <i name="e_fr_energy">    -66.36748439 </i>
    <i name="e_wo_entrp">    -66.36748439 </i>
    <i name="e_0_energy">    -66.36748439 </i>
   </energy>
  </scstep>
  <scstep>
   <time name="diag">    3.29    3.30</time>
   <time name="diis">   10.80   10.80</time>
   <time name="orth">    0.31    0.31</time>
   <time name="total">   15.69   15.71</time>
   <energy>
    <i name="e_fr_energy">    -65.88756554 </i>
    <i name="e_wo_entrp">    -65.88756554 </i>
    <i name="e_0_energy">    -65.88756554 </i>
   </energy>
  </scstep>
  <scstep>
   <time name="diag">    3.29    3.29</time>
   <time name="diis">   14.18   14.19</time>
   <time name="orth">    0.31    0.31</time>
   <time name="total">   19.04   19.07</time>
   <energy>
    <i name="e_fr_energy">    -65.92192717 </i>
    <i name="e_wo_entrp">    -65.92192717 </i>
    <i name="e_0_energy">    -65.92192717 </i>
   </energy>
  </scstep>
  <scstep>
   <time name="diag">    3.28    3.28</time>
   <time name="diis">   12.24   12.25</time>
   <time name="orth">    0.31    0.31</time>
   <time name="total">   17.11   17.13</time>
   <energy>
    <i name="e_fr_energy">    -65.92494639 </i>
    <i name="e_wo_entrp">    -65.92494639 </i>
    <i name="e_0_energy">    -65.92494639 </i>
   </energy>
  </scstep>
  <scstep>
   <time name="diag">    3.32    3.32</time>
   <time name="diis">   14.34   14.35</time>
   <time name="orth">    0.31    0.31</time>
   <time name="total">   19.24   19.26</time>
   <energy>
    <i name="e_fr_energy">    -65.92561180 </i>
    <i name="e_wo_entrp">    -65.92561180 </i>
    <i name="e_0_energy">    -65.92561180 </i>
   </energy>
  </scstep>
  <scstep>
   <time name="diag">    3.30    3.30</time>
   <time name="diis">   12.11   12.11</time>
   <time name="orth">    0.31    0.31</time>
   <time name="total">   17.00   17.02</time>
   <energy>
    <i name="e_fr_energy">    -65.92458114 </i>
    <i name="e_wo_entrp">    -65.92458114 </i>
    <i name="e_0_energy">    -65.92458114 </i>
   </energy>
  </scstep>
  <scstep>
   <time name="diag">    3.29    3.29</time>
   <time name="diis">   19.71   19.72</time>
   <time name="orth">    0.31    0.31</time>
   <time name="total">   24.62   24.65</time>
   <energy>
    <i name="e_fr_energy">    -66.30497493 </i>
    <i name="e_wo_entrp">    -66.30497493 </i>
    <i name="e_0_energy">    -66.30497493 </i>
   </energy>
  </scstep>
  <scstep>
   <time name="diag">    3.37    3.37</time>
   <time name="diis">   19.52   19.54</time>
   <time name="orth">    0.31    0.31</time>
   <time name="total">   24.47   24.50</time>
   <energy>
    <i name="e_fr_energy">    -65.94871290 </i>
    <i name="e_wo_entrp">    -65.94871290 </i>
    <i name="e_0_energy">    -65.94871290 </i>
   </energy>
  </scstep>
  <scstep>
   <time name="diag">    3.29    3.29</time>
   <time name="diis">   17.47   17.48</time>
   <time name="orth">    0.32    0.32</time>
   <time name="total">   22.37   22.38</time>
   <energy>
    <i name="e_fr_energy">    -65.92691652 </i>
    <i name="e_wo_entrp">    -65.92691652 </i>
    <i name="e_0_energy">    -65.92691652 </i>
   </energy>
  </scstep>
  <scstep>
   <time name="diag">    3.29    3.29</time>
   <time name="diis">   14.29   14.30</time>
   <time name="orth">    0.31    0.31</time>
   <time name="total">   19.16   19.18</time>
   <energy>
    <i name="e_fr_energy">    -65.92567595 </i>
    <i name="e_wo_entrp">    -65.92567595 </i>
    <i name="e_0_energy">    -65.92567595 </i>
   </energy>
  </scstep>
  <scstep>
   <time name="diag">    3.29    3.29</time>
   <time name="diis">   11.34   11.34</time>
   <time name="orth">    0.31    0.31</time>
   <time name="total">   16.24   16.25</time>
   <energy>
    <i name="e_fr_energy">    -65.92699208 </i>
    <i name="e_wo_entrp">    -65.92699208 </i>
    <i name="e_0_energy">    -65.92699208 </i>
   </energy>
  </scstep>
  <scstep>
   <time name="diag">    3.29    3.29</time>
   <time name="diis">   11.44   11.44</time>
   <time name="orth">    0.31    0.31</time>
   <time name="total">   16.31   16.33</time>
   <energy>
    <i name="e_fr_energy">    -65.92598696 </i>
    <i name="e_wo_entrp">    -65.92598696 </i>
    <i name="e_0_energy">    -65.92598696 </i>
   </energy>
  </scstep>
  <scstep>
   <time name="diag">    3.30    3.30</time>
   <time name="diis">   11.26   11.26</time>
   <time name="orth">    0.31    0.31</time>
   <time name="total">   16.16   16.17</time>
   <energy>
    <i name="e_fr_energy">    -65.92540197 </i>
    <i name="e_wo_entrp">    -65.92540197 </i>
    <i name="e_0_energy">    -65.92540197 </i>
   </energy>
  </scstep>
  <scstep>
   <time name="diag">    3.29    3.29</time>
   <time name="diis">   13.50   13.51</time>
   <time name="orth">    0.31    0.31</time>
   <time name="total">   18.38   18.40</time>
   <energy>
    <i name="e_fr_energy">    -65.92541465 </i>
    <i name="e_wo_entrp">    -65.92541465 </i>
    <i name="e_0_energy">    -65.92541465 </i>
   </energy>
  </scstep>
  <scstep>
   <time name="diag">    3.29    3.29</time>
   <time name="diis">   13.19   13.20</time>
   <time name="orth">    0.31    0.31</time>
   <time name="total">   18.08   18.09</time>
   <energy>
    <i name="e_fr_energy">    -65.92541733 </i>
    <i name="e_wo_entrp">    -65.92541733 </i>
    <i name="e_0_energy">    -65.92541733 </i>
   </energy>
  </scstep>
  <scstep>
   <time name="diag">    3.30    3.30</time>
   <time name="diis">   13.22   13.23</time>
   <time name="orth">    0.31    0.31</time>
   <time name="total">   18.10   18.13</time>
   <energy>
    <i name="e_fr_energy">    -65.92542341 </i>
    <i name="e_wo_entrp">    -65.92542341 </i>
    <i name="e_0_energy">    -65.92542341 </i>
   </energy>
  </scstep>
  <scstep>
   <time name="diag">    3.32    3.32</time>
   <time name="diis">   11.06   11.07</time>
   <time name="orth">    0.31    0.31</time>
   <time name="total">   15.98   15.99</time>
   <energy>
    <i name="e_fr_energy">    -65.92541973 </i>
    <i name="e_wo_entrp">    -65.92541973 </i>
    <i name="e_0_energy">    -65.92541973 </i>
   </energy>
  </scstep>
  <scstep>
   <time name="diag">    3.30    3.30</time>
   <time name="diis">   15.06   15.07</time>
   <time name="orth">    0.31    0.31</time>
   <time name="total">   19.95   19.98</time>
   <energy>
    <i name="e_fr_energy">    -65.92541910 </i>
    <i name="e_wo_entrp">    -65.92541910 </i>
    <i name="e_0_energy">    -65.92541910 </i>
   </energy>
  </scstep>
  <scstep>
   <time name="diag">    3.30    3.30</time>
   <time name="diis">   12.46   12.47</time>
   <time name="orth">    0.31    0.31</time>
   <time name="total">   17.35   17.38</time>
   <energy>
    <i name="e_fr_energy">    -65.92541828 </i>
    <i name="e_wo_entrp">    -65.92541828 </i>
    <i name="e_0_energy">    -65.92541828 </i>
   </energy>
  </scstep>
  <scstep>
   <time name="diag">    3.30    3.30</time>
   <time name="diis">   11.00   11.00</time>
   <time name="orth">    0.31    0.31</time>
   <time name="total">   15.88   15.90</time>
   <energy>
    <i name="e_fr_energy">    -65.92541774 </i>
    <i name="e_wo_entrp">    -65.92541774 </i>
    <i name="e_0_energy">    -65.92541774 </i>
   </energy>
  </scstep>
  <scstep>
   <time name="diag">    3.33    3.33</time>
   <time name="diis">   10.01   10.02</time>
   <time name="orth">    0.31    0.31</time>
   <time name="total">   14.92   14.95</time>
   <energy>
    <i name="e_fr_energy">    -65.92541750 </i>
    <i name="e_wo_entrp">    -65.92541750 </i>
    <i name="e_0_energy">    -65.92541750 </i>
   </energy>
  </scstep>
  <scstep>
   <time name="diag">    3.31    3.31</time>
   <time name="diis">    6.84    6.84</time>
   <time name="orth">    0.31    0.31</time>
   <time name="total">   11.73   11.75</time>
   <energy>
    <i name="e_fr_energy">    -65.92541734 </i>
    <i name="e_wo_entrp">    -65.92541734 </i>
    <i name="e_0_energy">    -65.92541734 </i>
   </energy>
  </scstep>
  <scstep>
   <time name="diag">    3.36    3.37</time>
   <time name="diis">    9.46    9.47</time>
   <time name="orth">    0.31    0.31</time>
   <time name="total">   14.42   14.44</time>
   <energy>
    <i name="e_fr_energy">    -65.92541709 </i>
    <i name="e_wo_entrp">    -65.92541709 </i>
    <i name="e_0_energy">    -65.92541709 </i>
   </energy>
  </scstep>
  <scstep>
   <time name="diag">    3.31    3.31</time>
   <time name="diis">    6.82    6.82</time>
   <time name="orth">    0.31    0.31</time>
   <time name="total">   11.72   11.74</time>
   <energy>
    <i name="e_fr_energy">    -65.92541704 </i>
    <i name="e_wo_entrp">    -65.92541704 </i>
    <i name="e_0_energy">    -65.92541704 </i>
   </energy>
  </scstep>
  <scstep>
   <time name="diag">    3.32    3.32</time>
   <time name="diis">    6.80    6.81</time>
   <time name="orth">    0.31    0.31</time>
   <time name="total">   10.79   10.81</time>
   <energy>
    <i name="alphaZ">    277.80440176 </i>
    <i name="ewald"> -10977.36100656 </i>
    <i name="hartreedc">  -4074.69435935 </i>
    <i name="XCdc">     90.55696379 </i>
    <i name="pawpsdc">  14668.66673621 </i>
    <i name="pawaedc"> -14230.93611879 </i>
    <i name="eentropy">     -0.00000000 </i>
    <i name="bandstr">   -904.03732556 </i>
    <i name="atom">  15084.07529148 </i>
    <i name="e_fr_energy">    -65.92541703 </i>
    <i name="e_wo_entrp">    -65.92541703 </i>
    <i name="e_0_energy">    -65.92541703 </i>
   </energy>
  </scstep>
  <structure>
   <crystal>
    <varray name="basis" >
     <v>       0.00000000       6.54179361       6.54179361 </v>
     <v>       6.54179361       0.00000000       6.54179361 </v>
     <v>       6.54179361       6.54179361       0.00000000 </v>
    </varray>
    <i name="volume">    559.91294770 </i>
    <varray name="rec_basis" >
     <v>      -0.07643164       0.07643164       0.07643164 </v>
     <v>       0.07643164      -0.07643164       0.07643164 </v>
     <v>       0.07643164       0.07643164      -0.07643164 </v>
    </varray>
   </crystal>
   <varray name="positions" >
    <v>       0.24859428       0.25144069       0.25029412 </v>
    <v>       0.75121883       0.24990423       0.24995270 </v>
    <v>       0.24974603       0.74957542       0.25054301 </v>
    <v>       0.75068377       0.74943573       0.24905031 </v>
    <v>       0.24984131       0.24986265       0.75107769 </v>
    <v>       0.74917214       0.24974251       0.75002643 </v>
    <v>       0.25120280       0.74840766       0.75028821 </v>
    <v>       0.74998577       0.75060848       0.74905670 </v>
    <v>       0.99985281       0.00089526       0.00045304 </v>
    <v>       0.49948385       0.99976920       0.00194355 </v>
    <v>       0.99953963       0.50038148       0.00034469 </v>
    <v>       0.50045390       0.50065763       0.99965620 </v>
    <v>       0.99992529       0.00041396       0.50016771 </v>
    <v>       0.50036506       0.99947814       0.50077689 </v>
    <v>       0.99857831       0.49947040       0.50076889 </v>
    <v>       0.49979694       0.49963581       0.50086376 </v>
   </varray>
  </structure>
  <varray name="forces" >
   <v>      -0.01733895       0.02260994       0.00659014 </v>
   <v>      -0.01116455      -0.00654476      -0.02690949 </v>
   <v>      -0.00463069      -0.01136189      -0.00074104 </v>
   <v>       0.03331243       0.00450358       0.00465528 </v>
   <v>      -0.03114372      -0.00733103      -0.00424437 </v>
   <v>       0.00460518       0.01741812       0.00047580 </v>
   <v>       0.01780399      -0.00609291       0.02498854 </v>
   <v>       0.01338338      -0.01077484      -0.00529956 </v>
   <v>      -0.01626731       0.00366814      -0.01957427 </v>
   <v>      -0.01872693      -0.02636417      -0.00508425 </v>
   <v>      -0.00570629       0.01046532       0.00315341 </v>
   <v>       0.00795223       0.00549636      -0.01953469 </v>
   <v>      -0.00212274       0.00732707       0.00045204 </v>
   <v>       0.00901270      -0.02092199       0.00318055 </v>
   <v>       0.01592716       0.02677713       0.02766915 </v>
   <v>       0.00510410      -0.00887409       0.01022276 </v>
  </varray>
  <varray name="stress" >
   <v>     -18.44887650      -0.00059171      -0.00116939 </v>
   <v>      -0.00059200     -18.45147512      -0.00171867 </v>
   <v>      -0.00116917      -0.00171890     -18.46570538 </v>
  </varray>
  <energy>
   <i name="e_fr_energy">    -65.92541703 </i>
   <i name="e_wo_entrp">    -65.92541703 </i>
   <i name="e_0_energy">    -65.92541703 </i>
  </energy>
