 ----------------------------------------------------
    OOO  PPPP  EEEEE N   N M   M PPPP
   O   O P   P E     NN  N MM MM P   P
   O   O PPPP  EEEEE N N N M M M PPPP   -- VERSION
   O   O P     E     N  NN M   M P
    OOO  P     EEEEE N   N M   M P
 ----------------------------------------------------
 running  128 mpi-ranks, with    1 threads/rank
 distrk:  each k-point on  128 cores,    1 groups
 distr:  one band on   16 cores,    8 groups
 vasp.6.3.0 20Jan22 (build Feb 21 2022 11:18:28) complex                         
 POSCAR found type information on POSCAR PbTe
 POSCAR found :  2 types and      16 ions
 Reading from existing POTCAR
 scaLAPACK will be used
 Reading from existing POTCAR
 -----------------------------------------------------------------------------
|                                                                             |
|               ----> ADVICE to this user running VASP <----                  |
|                                                                             |
|     You enforced a specific xc type in the INCAR file but a different       |
|     type was found in the POTCAR file.                                      |
|     I HOPE YOU KNOW WHAT YOU ARE DOING!                                     |
|                                                                             |
 -----------------------------------------------------------------------------

 LDA part: xc-table for Pade appr. of Perdew
 POSCAR, INCAR and KPOINTS ok, starting setup
 FFT: planning ... GRIDC
 FFT: planning ... GRID_SOFT
 FFT: planning ... GRID
 WAVECAR not read
 WARNING: random wavefunctions but no delay for mixing, default for NELMDL
 entering main loop
       N       E                     dE             d eps       ncg     rms          rms(c)
DAV:   1     0.184914580561E+04    0.18491E+04   -0.73689E+04 21504   0.182E+03
DAV:   2     0.203689395490E+03   -0.16455E+04   -0.16015E+04 21520   0.473E+02
DAV:   3    -0.472582683244E+02   -0.25095E+03   -0.23834E+03 26408   0.210E+02
DAV:   4    -0.660773210696E+02   -0.18819E+02   -0.18517E+02 25888   0.562E+01
DAV:   5    -0.669792161750E+02   -0.90190E+00   -0.89929E+00 26848   0.116E+01    0.890E+00
RMM:   6    -0.659551557959E+02    0.10241E+01   -0.19165E+00 21766   0.380E+00    0.511E+00
RMM:   7    -0.659565509271E+02   -0.13951E-02   -0.19703E+00 22893   0.297E+00    0.162E+00
RMM:   8    -0.659406949521E+02    0.15856E-01   -0.39936E-01 22343   0.376E+00    0.494E-01
RMM:   9    -0.659241071628E+02    0.16588E-01   -0.96924E-02 24826   0.171E+00    0.342E-01
RMM:  10    -0.659272725099E+02   -0.31653E-02   -0.29280E-02 25133   0.680E-01    0.234E-01
RMM:  11    -0.659261286668E+02    0.11438E-02   -0.53016E-03 25527   0.360E-01    0.200E-01
RMM:  12    -0.659262286815E+02   -0.10001E-03   -0.14969E-02 23463   0.377E-01    0.157E-01
RMM:  13    -0.659253947489E+02    0.83393E-03   -0.30236E-03 24838   0.252E-01    0.522E-02
RMM:  14    -0.659254604352E+02   -0.65686E-04   -0.41928E-04 28032   0.895E-02    0.784E-02
RMM:  15    -0.659254435715E+02    0.16864E-04   -0.14349E-04 26567   0.349E-02    0.699E-02
RMM:  16    -0.659254276564E+02    0.15915E-04   -0.14414E-04 22469   0.301E-02    0.354E-02
RMM:  17    -0.659254316620E+02   -0.40055E-05   -0.47618E-05 25035   0.221E-02    0.269E-02
RMM:  18    -0.659254285351E+02    0.31268E-05   -0.52540E-06 27103   0.916E-03    0.248E-02
RMM:  19    -0.659254223255E+02    0.62096E-05   -0.61397E-06 21537   0.646E-03    0.186E-02
RMM:  20    -0.659254209180E+02    0.14076E-05   -0.12274E-06 26343   0.632E-03    0.134E-02
RMM:  21    -0.659254206301E+02    0.28783E-06   -0.27573E-07 25491   0.226E-03    0.110E-02
RMM:  22    -0.659254202283E+02    0.40184E-06   -0.96449E-08 20794   0.118E-03    0.940E-03
RMM:  23    -0.659254178611E+02    0.23672E-05   -0.17777E-06 28663   0.300E-03    0.293E-03
RMM:  24    -0.659254173936E+02    0.46748E-06   -0.12012E-07 22365   0.200E-03    0.146E-03
RMM:  25    -0.659254172325E+02    0.16108E-06   -0.27533E-08 14616   0.790E-04    0.799E-04
RMM:  26    -0.659254170911E+02    0.14146E-06   -0.14350E-08 13066   0.478E-04    0.271E-04
RMM:  27    -0.659254170570E+02    0.34088E-07   -0.86736E-09 12558   0.479E-04    0.153E-04
RMM:  28    -0.659254170445E+02    0.12460E-07   -0.57128E-09 12544   0.356E-04    0.173E-04
RMM:  29    -0.659254170511E+02   -0.66084E-08   -0.33223E-09 12544   0.322E-04
   1 F= -.65925417E+02 E0= -.65925417E+02  d E =-.659254E+02
 curvature:   0.00 expect dE= 0.000E+00 dE for cont linesearch  0.000E+00
 trial: gam= 0.00000 g(F)=  0.000E+00 g(S)=  0.376E+00 ort = 0.000E+00 (trialstep = 0.100E+01)
 search vector abs. value=  0.376E+00
 bond charge predicted
       N       E                     dE             d eps       ncg     rms          rms(c)
DAV:   1    -0.711915990632E+02   -0.52662E+01   -0.15906E+02 27704   0.869E+01    0.126E+01
RMM:   2    -0.667019432538E+02    0.44897E+01   -0.95322E+00 22715   0.207E+01    0.469E+00
RMM:   3    -0.659726474620E+02    0.72930E+00   -0.41409E+00 21544   0.108E+01    0.578E-01
RMM:   4    -0.660493082486E+02   -0.76661E-01   -0.85425E-01 28043   0.413E+00    0.103E+00
RMM:   5    -0.660561237456E+02   -0.68155E-02   -0.81522E-02 23940   0.145E+00    0.119E+00
RMM:   6    -0.660768032855E+02   -0.20680E-01   -0.73454E-02 26658   0.141E+00    0.176E+00
RMM:   7    -0.661767252160E+02   -0.99922E-01   -0.97107E-01 32913   0.641E+00    0.205E+00
RMM:   8    -0.661208055354E+02    0.55920E-01   -0.44438E-02 21583   0.135E+00    0.204E+00
RMM:   9    -0.661220361746E+02   -0.12306E-02   -0.60251E-03 26181   0.331E-01    0.207E+00
RMM:  10    -0.661345423787E+02   -0.12506E-01   -0.23219E-03 24855   0.312E-01    0.228E+00
RMM:  11    -0.660739908020E+02    0.60552E-01   -0.10158E-01 33223   0.202E+00    0.104E+00
RMM:  12    -0.660613576500E+02    0.12633E-01   -0.41404E-02 32368   0.125E+00    0.254E-01
RMM:  13    -0.660612408938E+02    0.11676E-03   -0.10083E-03 24239   0.133E-01    0.183E-01
RMM:  14    -0.660612270574E+02    0.13836E-04   -0.21636E-04 31994   0.604E-02    0.165E-01
RMM:  15    -0.660610072964E+02    0.21976E-03   -0.61444E-04 23195   0.155E-01    0.722E-02
RMM:  16    -0.660610191191E+02   -0.11823E-04   -0.35714E-04 23691   0.100E-01    0.363E-02
RMM:  17    -0.660610158628E+02    0.32563E-05   -0.47305E-05 27609   0.344E-02    0.345E-02
RMM:  18    -0.660609828971E+02    0.32966E-04   -0.42771E-05 23223   0.473E-02    0.211E-02
RMM:  19    -0.660609795447E+02    0.33524E-05   -0.35462E-05 21855   0.340E-02    0.224E-02
RMM:  20    -0.660609798452E+02   -0.30053E-06   -0.46287E-06 23684   0.165E-02    0.119E-02
RMM:  21    -0.660609802870E+02   -0.44179E-06   -0.14173E-06 22468   0.731E-03    0.590E-03
RMM:  22    -0.660609809699E+02   -0.68282E-06   -0.83637E-07 23224   0.404E-03    0.336E-03
RMM:  23    -0.660609818395E+02   -0.86969E-06   -0.31174E-07 26235   0.223E-03    0.364E-03
RMM:  24    -0.660609822215E+02   -0.38193E-06   -0.20110E-07 21814   0.269E-03    0.174E-03
RMM:  25    -0.660609822679E+02   -0.46439E-07   -0.11779E-07 20121   0.180E-03    0.281E-04
RMM:  26    -0.660609822803E+02   -0.12400E-07   -0.22431E-08 13237   0.726E-04    0.305E-04
RMM:  27    -0.660609823074E+02   -0.27039E-07   -0.10483E-08 12406   0.771E-04    0.185E-04
RMM:  28    -0.660609823374E+02   -0.29995E-07   -0.34910E-09 12299   0.329E-04    0.223E-04
RMM:  29    -0.660609823239E+02    0.13417E-07   -0.17032E-09 12242   0.264E-04    0.221E-04
RMM:  30    -0.660609822997E+02    0.24227E-07   -0.87191E-10 12075   0.166E-04    0.157E-04
RMM:  31    -0.660609822960E+02    0.36798E-08   -0.54788E-10 11754   0.163E-04
   2 F= -.66060982E+02 E0= -.66060982E+02  d E =-.135565E+00
 trial-energy change:   -0.135565  1 .order   -0.128319   -0.376344    0.119707
 step:   0.7740(harm=  0.7587)  dis= 0.00000  next Energy=   -66.074425 (dE=-0.149E+00)
 bond charge predicted
       N       E                     dE             d eps       ncg     rms          rms(c)
DAV:   1    -0.663324932619E+02   -0.27151E+00   -0.86239E+00 27744   0.221E+01    0.276E+00
RMM:   2    -0.661119058172E+02    0.22059E+00   -0.44202E-01 22233   0.450E+00    0.108E+00
RMM:   3    -0.660711328491E+02    0.40773E-01   -0.22146E-01 21504   0.269E+00    0.132E-01
RMM:   4    -0.660744081260E+02   -0.32753E-02   -0.37947E-02 28311   0.863E-01    0.227E-01
RMM:   5    -0.660746782216E+02   -0.27010E-03   -0.35917E-03 23558   0.329E-01    0.244E-01
RMM:   6    -0.660749111128E+02   -0.23289E-03   -0.14198E-03 28904   0.176E-01    0.303E-01
RMM:   7    -0.660756022465E+02   -0.69113E-03   -0.91639E-03 26088   0.621E-01    0.171E-01
RMM:   8    -0.660750720714E+02    0.53018E-03   -0.53189E-04 21554   0.170E-01    0.116E-01
RMM:   9    -0.660747657432E+02    0.30633E-03   -0.66519E-04 21504   0.162E-01    0.452E-02
RMM:  10    -0.660747857924E+02   -0.20049E-04   -0.48115E-05 25323   0.432E-02    0.514E-02
RMM:  11    -0.660747856801E+02    0.11233E-06   -0.17638E-05 30258   0.182E-02    0.487E-02
RMM:  12    -0.660747447186E+02    0.40961E-04   -0.85325E-05 26877   0.573E-02    0.255E-02
RMM:  13    -0.660747375564E+02    0.71622E-05   -0.39497E-05 24723   0.376E-02    0.992E-03
RMM:  14    -0.660747388175E+02   -0.12611E-05   -0.60400E-06 27978   0.122E-02    0.598E-03
RMM:  15    -0.660747388031E+02    0.14355E-07   -0.74187E-07 22209   0.455E-03    0.616E-03
RMM:  16    -0.660747395219E+02   -0.71871E-06   -0.49358E-07 25181   0.405E-03    0.572E-03
RMM:  17    -0.660747402963E+02   -0.77446E-06   -0.43603E-07 20930   0.221E-03    0.405E-03
RMM:  18    -0.660747401364E+02    0.15991E-06   -0.25580E-07 23592   0.258E-03    0.384E-03
RMM:  19    -0.660747401265E+02    0.99408E-08   -0.27550E-08 14579   0.699E-04
   3 F= -.66074740E+02 E0= -.66074740E+02  d E =-.149323E+00
 curvature:  -0.38 expect dE=-0.994E-06 dE for cont linesearch -0.993E-06
 ZBRENT: interpolating
 opt :   0.7759  next Energy=   -66.074741 (dE=-0.149E+00)
 bond charge predicted
       N       E                     dE             d eps       ncg     rms          rms(c)
DAV:   1    -0.660747592024E+02   -0.19066E-04   -0.58062E-04 27208   0.178E-01    0.257E-02
RMM:   2    -0.660747399021E+02    0.19300E-04   -0.36285E-05 22657   0.406E-02    0.103E-02
RMM:   3    -0.660747370733E+02    0.28287E-05   -0.18160E-05 21581   0.239E-02    0.119E-03
RMM:   4    -0.660747380432E+02   -0.96990E-06   -0.30584E-06 28099   0.782E-03    0.161E-03
RMM:   5    -0.660747380966E+02   -0.53333E-07   -0.31893E-07 23117   0.293E-03    0.160E-03
RMM:   6    -0.660747383409E+02   -0.24439E-06   -0.27867E-07 21332   0.372E-03    0.840E-04
RMM:   7    -0.660747386696E+02   -0.32868E-06   -0.50635E-08 17295   0.115E-03    0.885E-04
RMM:   8    -0.660747386349E+02    0.34714E-07   -0.50296E-08 17212   0.139E-03    0.288E-04
RMM:   9    -0.660747385890E+02    0.45940E-07   -0.27421E-08 12861   0.972E-04    0.282E-04
RMM:  10    -0.660747386103E+02   -0.21357E-07   -0.17271E-08 11723   0.106E-03    0.166E-04
RMM:  11    -0.660747385906E+02    0.19718E-07   -0.33916E-09 11642   0.353E-04    0.165E-04
RMM:  12    -0.660747385837E+02    0.68794E-08   -0.19474E-09 11637   0.326E-04
   4 F= -.66074739E+02 E0= -.66074739E+02  d E =-.149322E+00
 curvature:  -0.35 expect dE=-0.115E-05 dE for cont linesearch -0.115E-05
 ZBRENT: interpolating
 opt :   0.7749  next Energy=   -66.074741 (dE=-0.149E+00)
 bond charge predicted
       N       E                     dE             d eps       ncg     rms          rms(c)
DAV:   1    -0.660747448065E+02   -0.62159E-05   -0.16099E-04 27392   0.938E-02    0.121E-02
RMM:   2    -0.660747411470E+02    0.36595E-05   -0.84796E-06 22239   0.196E-02    0.469E-03
RMM:   3    -0.660747402003E+02    0.94668E-06   -0.41676E-06 21508   0.115E-02    0.588E-04
RMM:   4    -0.660747399555E+02    0.24481E-06   -0.74342E-07 27909   0.382E-03    0.987E-04
RMM:   5    -0.660747399504E+02    0.51641E-08   -0.69604E-08 19997   0.146E-03
   5 F= -.66074740E+02 E0= -.66074740E+02  d E =-.149323E+00
 curvature:  -0.13 expect dE=-0.155E-06 dE for cont linesearch -0.154E-06
 ZBRENT: interpolating
 opt :   0.7745  next Energy=   -66.074740 (dE=-0.149E+00)
 bond charge predicted
       N       E                     dE             d eps       ncg     rms          rms(c)
DAV:   1    -0.660747407937E+02   -0.83812E-06   -0.19391E-05 27576   0.327E-02    0.350E-03
RMM:   2    -0.660747404377E+02    0.35594E-06   -0.83423E-07 22335   0.618E-03    0.137E-03
RMM:   3    -0.660747401877E+02    0.24998E-06   -0.40522E-07 21442   0.353E-03    0.427E-04
RMM:   4    -0.660747400465E+02    0.14120E-06   -0.86286E-08 19168   0.130E-03    0.408E-04
RMM:   5    -0.660747399907E+02    0.55850E-07   -0.14146E-08 11289   0.722E-04    0.308E-04
RMM:   6    -0.660747399074E+02    0.83262E-07   -0.12548E-08 11439   0.869E-04    0.235E-04
RMM:   7    -0.660747399456E+02   -0.38235E-07   -0.68697E-09 11284   0.601E-04    0.161E-04
RMM:   8    -0.660747399523E+02   -0.66211E-08   -0.19796E-09 11260   0.264E-04
   6 F= -.66074740E+02 E0= -.66074740E+02  d E =-.149323E+00
 curvature:  -0.10 expect dE=-0.413E-07 dE for cont linesearch -0.409E-07
 ZBRENT: interpolating
 opt :   0.7742  next Energy=   -66.074740 (dE=-0.149E+00)
 bond charge predicted
       N       E                     dE             d eps       ncg     rms          rms(c)
DAV:   1    -0.660747409301E+02   -0.98449E-06   -0.22849E-05 27632   0.354E-02    0.448E-03
RMM:   2    -0.660747405545E+02    0.37562E-06   -0.11839E-06 22239   0.734E-03    0.174E-03
RMM:   3    -0.660747403856E+02    0.16891E-06   -0.58001E-07 21505   0.428E-03    0.264E-04
RMM:   4    -0.660747402812E+02    0.10444E-06   -0.10375E-07 21506   0.142E-03    0.361E-04
RMM:   5    -0.660747402744E+02    0.68067E-08   -0.12947E-08 11445   0.691E-04
   7 F= -.66074740E+02 E0= -.66074740E+02  d E =-.149323E+00
 curvature:  -0.23 expect dE=-0.274E-07 dE for cont linesearch -0.265E-07
 ZBRENT: bisectioning
 opt :   0.7741  next Energy=   -66.074740 (dE=-0.149E+00)
 bond charge predicted
       N       E                     dE             d eps       ncg     rms          rms(c)
DAV:   1    -0.660747403720E+02   -0.90820E-07   -0.88813E-07 27240   0.696E-03    0.709E-04
RMM:   2    -0.660747403351E+02    0.36845E-07   -0.27383E-08 11449   0.111E-03    0.372E-04
RMM:   3    -0.660747402694E+02    0.65760E-07   -0.11191E-08 11069   0.589E-04    0.208E-04
RMM:   4    -0.660747402253E+02    0.44056E-07   -0.32990E-09 11061   0.355E-04    0.162E-04
RMM:   5    -0.660747402070E+02    0.18290E-07   -0.16809E-09 11091   0.275E-04    0.153E-04
RMM:   6    -0.660747402112E+02   -0.41873E-08   -0.77146E-10 11076   0.214E-04
   8 F= -.66074740E+02 E0= -.66074740E+02  d E =-.149323E+00
 curvature:  -0.13 expect dE=-0.111E-07 dE for cont linesearch -0.106E-07
 ZBRENT: bisectioning
 opt :   0.7741  next Energy=   -66.074740 (dE=-0.149E+00)
 bond charge predicted
       N       E                     dE             d eps       ncg     rms          rms(c)
DAV:   1    -0.660747402458E+02   -0.38806E-07   -0.25332E-07 19720   0.382E-03    0.506E-04
RMM:   2    -0.660747402651E+02   -0.19243E-07   -0.17894E-08 10999   0.924E-04    0.233E-04
RMM:   3    -0.660747402608E+02    0.42928E-08   -0.75798E-09 10979   0.557E-04    0.153E-04
RMM:   4    -0.660747402484E+02    0.12415E-07   -0.21532E-09 11000   0.248E-04    0.151E-04
RMM:   5    -0.660747402420E+02    0.63792E-08   -0.83891E-10 10621   0.166E-04
   9 F= -.66074740E+02 E0= -.66074740E+02  d E =-.149323E+00
 curvature:  -0.08 expect dE=-0.533E-08 dE for cont linesearch -0.501E-08
 ZBRENT: bisectioning
 opt :   0.7740  next Energy=   -66.074740 (dE=-0.149E+00)
 bond charge predicted
       N       E                     dE             d eps       ncg     rms          rms(c)
DAV:   1    -0.660747402488E+02   -0.41837E-09   -0.65112E-08 17264   0.189E-03    0.287E-04
RMM:   2    -0.660747402618E+02   -0.12991E-07   -0.54534E-09 10941   0.562E-04    0.175E-04
RMM:   3    -0.660747402600E+02    0.17571E-08   -0.22465E-09 10908   0.308E-04    0.151E-04
RMM:   4    -0.660747402525E+02    0.74961E-08   -0.67287E-10  8904   0.139E-04    0.150E-04
RMM:   5    -0.660747402479E+02    0.46057E-08   -0.27781E-10  5297   0.945E-05
  10 F= -.66074740E+02 E0= -.66074740E+02  d E =-.149323E+00
 curvature:  -0.05 expect dE=-0.287E-08 dE for cont linesearch -0.268E-08
 ZBRENT: bisectioning
 opt :   0.7740  next Energy=   -66.074740 (dE=-0.149E+00)
 bond charge predicted
       N       E                     dE             d eps       ncg     rms          rms(c)
DAV:   1    -0.660747402509E+02    0.16662E-08   -0.14577E-08 12600   0.898E-04    0.188E-04
RMM:   2    -0.660747402573E+02   -0.64701E-08   -0.12522E-09 10193   0.295E-04    0.155E-04
RMM:   3    -0.660747402566E+02    0.78762E-09   -0.42995E-10  8905   0.163E-04    0.150E-04
RMM:   4    -0.660747402533E+02    0.32651E-08   -0.12314E-10  3500   0.824E-05    0.149E-04
RMM:   5    -0.660747402504E+02    0.28867E-08   -0.57809E-11  2511   0.754E-05
  11 F= -.66074740E+02 E0= -.66074740E+02  d E =-.149323E+00
 curvature:  -0.03 expect dE=-0.136E-08 dE for cont linesearch -0.126E-08
 ZBRENT: bisectioning
 opt :   0.7740  next Energy=   -66.074740 (dE=-0.149E+00)
 bond charge predicted
       N       E                     dE             d eps       ncg     rms          rms(c)
DAV:   1    -0.660747402532E+02    0.65484E-10   -0.35286E-09 12184   0.453E-04    0.159E-04
RMM:   2    -0.660747402563E+02   -0.31214E-08   -0.28462E-10  7990   0.151E-04    0.151E-04
RMM:   3    -0.660747402555E+02    0.84765E-09   -0.88887E-11  6670   0.889E-05    0.149E-04
RMM:   4    -0.660747402538E+02    0.16680E-08   -0.21344E-11  1600   0.561E-05    0.149E-04
RMM:   5    -0.660747402524E+02    0.14388E-08   -0.10371E-11  1308   0.545E-05
  12 F= -.66074740E+02 E0= -.66074740E+02  d E =-.149323E+00
 curvature:  -0.01 expect dE=-0.647E-09 dE for cont linesearch -0.593E-09
 ZBRENT: bisectioning
 opt :   0.7740  next Energy=   -66.074740 (dE=-0.149E+00)
 bond charge predicted
       N       E                     dE             d eps       ncg     rms          rms(c)
DAV:   1    -0.660747402538E+02    0.63665E-10   -0.10170E-09 12104   0.238E-04    0.152E-04
RMM:   2    -0.660747402555E+02   -0.17535E-08   -0.64663E-11  5490   0.821E-05    0.150E-04
RMM:   3    -0.660747402553E+02    0.25830E-09   -0.58924E-12   713   0.526E-05    0.149E-04
RMM:   4    -0.660747402551E+02    0.14188E-09   -0.45192E-12   752   0.646E-05    0.149E-04
RMM:   5    -0.660747402550E+02    0.14006E-09   -0.49593E-12   956   0.647E-05
  13 F= -.66074740E+02 E0= -.66074740E+02  d E =-.149323E+00
 curvature:  -0.01 expect dE=-0.371E-09 dE for cont linesearch -0.342E-09
 ZBRENT: bisectioning
 opt :   0.7740  next Energy=   -66.074740 (dE=-0.149E+00)
 bond charge predicted
       N       E                     dE             d eps       ncg     rms          rms(c)
DAV:   1    -0.660747402556E+02   -0.50386E-09   -0.17539E-10 11912   0.938E-05    0.150E-04
RMM:   2    -0.660747402556E+02    0.32742E-10    0.00000E+00   288   0.415E-05    0.149E-04
RMM:   3    -0.660747402554E+02    0.15280E-09   -0.22542E-11  3329   0.576E-05    0.149E-04
RMM:   4    -0.660747402552E+02    0.18917E-09    0.00000E+00   288   0.368E-05    0.149E-04
RMM:   5    -0.660747402532E+02    0.20900E-08    0.00000E+00   286   0.379E-05
  14 F= -.66074740E+02 E0= -.66074740E+02  d E =-.149323E+00
 curvature:  -0.00 expect dE=-0.161E-09 dE for cont linesearch -0.147E-09
 ZBRENT: bisectioning
 opt :   0.7740  next Energy=   -66.074740 (dE=-0.149E+00)
 bond charge predicted
       N       E                     dE             d eps       ncg     rms          rms(c)
DAV:   1    -0.660747402540E+02    0.12424E-08   -0.97809E-11 11808   0.676E-05    0.150E-04
RMM:   2    -0.660747402546E+02   -0.60209E-09    0.00000E+00   276   0.331E-05    0.149E-04
RMM:   3    -0.660747402555E+02   -0.89858E-09   -0.10283E-11  1597   0.515E-05    0.149E-04
RMM:   4    -0.660747402553E+02    0.19099E-09    0.00000E+00   280   0.403E-05    0.149E-04
RMM:   5    -0.660747402546E+02    0.71668E-09    0.00000E+00   277   0.372E-05
  15 F= -.66074740E+02 E0= -.66074740E+02  d E =-.149323E+00
 curvature:  -0.00 expect dE=-0.906E-10 dE for cont linesearch -0.833E-10
 ZBRENT: bisectioning
 opt :   0.7740  next Energy=   -66.074740 (dE=-0.149E+00)
 bond charge predicted
       N       E                     dE             d eps       ncg     rms          rms(c)
DAV:   1    -0.660747402550E+02    0.35470E-09   -0.23590E-11 11696   0.301E-05    0.149E-04
RMM:   2    -0.660747402545E+02    0.43656E-09    0.00000E+00   226   0.140E-05    0.149E-04
RMM:   3    -0.660747402541E+02    0.46202E-09    0.00000E+00   234   0.142E-05    0.149E-04
RMM:   4    -0.660747402540E+02    0.10368E-09    0.00000E+00   248   0.141E-05    0.149E-04
RMM:   5    -0.660747402540E+02   -0.58208E-10    0.00000E+00   236   0.141E-05
  16 F= -.66074740E+02 E0= -.66074740E+02  d E =-.149323E+00
 curvature:  -0.00 expect dE=-0.415E-10 dE for cont linesearch -0.379E-10
 ZBRENT: bisectioning
 opt :   0.7740  next Energy=   -66.074740 (dE=-0.149E+00)
 bond charge predicted
       N       E                     dE             d eps       ncg     rms          rms(c)
DAV:   1    -0.660747402541E+02   -0.16735E-09   -0.12807E-11 11600   0.236E-05    0.149E-04
RMM:   2    -0.660747402543E+02   -0.14188E-09    0.00000E+00   229   0.113E-05    0.149E-04
RMM:   3    -0.660747402545E+02   -0.28376E-09    0.00000E+00   241   0.167E-05    0.149E-04
RMM:   4    -0.660747402545E+02    0.18190E-10    0.00000E+00   241   0.168E-05    0.149E-04
RMM:   5    -0.660747402545E+02    0.10914E-10    0.00000E+00   249   0.169E-05
  17 F= -.66074740E+02 E0= -.66074740E+02  d E =-.149323E+00
 curvature:  -0.00 expect dE=-0.223E-10 dE for cont linesearch -0.205E-10
 ZBRENT: bisectioning
 opt :   0.7740  next Energy=   -66.074740 (dE=-0.149E+00)
 bond charge predicted
       N       E                     dE             d eps       ncg     rms          rms(c)
DAV:   1    -0.660747402546E+02   -0.60027E-10   -0.22106E-12 11560   0.112E-05    0.149E-04
RMM:   2    -0.660747402543E+02    0.30195E-09    0.00000E+00   205   0.744E-06    0.149E-04
RMM:   3    -0.660747402538E+02    0.44383E-09    0.00000E+00   207   0.992E-06    0.149E-04
RMM:   4    -0.660747402539E+02   -0.72760E-11    0.00000E+00   214   0.993E-06    0.149E-04
RMM:   5    -0.660747402538E+02    0.90949E-11    0.00000E+00   219   0.995E-06
  18 F= -.66074740E+02 E0= -.66074740E+02  d E =-.149323E+00
 curvature:  -0.00 expect dE=-0.103E-10 dE for cont linesearch -0.943E-11
 ZBRENT: bisectioning
 opt :   0.7740  next Energy=   -66.074740 (dE=-0.149E+00)
 bond charge predicted
       N       E                     dE             d eps       ncg     rms          rms(c)
DAV:   1    -0.660747402539E+02   -0.41837E-10   -0.14630E-12 11536   0.131E-05    0.149E-04
RMM:   2    -0.660747402541E+02   -0.18190E-09    0.00000E+00   197   0.621E-06    0.149E-04
RMM:   3    -0.660747402544E+02   -0.33288E-09    0.00000E+00   195   0.981E-06    0.149E-04
RMM:   4    -0.660747402544E+02    0.54570E-10    0.00000E+00   214   0.983E-06    0.149E-04
RMM:   5    -0.660747402544E+02   -0.18190E-10    0.00000E+00   210   0.984E-06
  19 F= -.66074740E+02 E0= -.66074740E+02  d E =-.149323E+00
 curvature:  -0.00 expect dE=-0.554E-11 dE for cont linesearch -0.507E-11
 ZBRENT:  can not reach accuracy
 opt :   0.0000  next Energy=     0.000000 (dE= 0.659E+02)
 bond charge predicted
       N       E                     dE             d eps       ncg     rms          rms(c)
DAV:   1    -0.688515328758E+02   -0.27768E+01   -0.10141E+02 27616   0.775E+01    0.911E+00
RMM:   2    -0.663674843913E+02    0.24840E+01   -0.49216E+00 22174   0.150E+01    0.364E+00
RMM:   3    -0.658875655433E+02    0.47992E+00   -0.25780E+00 21504   0.947E+00    0.461E-01
RMM:   4    -0.659219271715E+02   -0.34362E-01   -0.39926E-01 28083   0.280E+00    0.692E-01
RMM:   5    -0.659249463894E+02   -0.30192E-02   -0.42793E-02 24218   0.115E+00    0.743E-01
RMM:   6    -0.659256117960E+02   -0.66541E-03   -0.12597E-02 28239   0.602E-01    0.767E-01
RMM:   7    -0.659245811401E+02    0.10307E-02   -0.35389E-03 23473   0.286E-01    0.110E+00
RMM:   8    -0.663049749254E+02   -0.38039E+00   -0.14274E+00 39419   0.764E+00    0.769E+00
RMM:   9    -0.659487129025E+02    0.35626E+00   -0.76609E-01 38628   0.557E+00    0.213E+00
RMM:  10    -0.659269165210E+02    0.21796E-01   -0.69301E-02 34477   0.157E+00    0.524E-01
RMM:  11    -0.659256759535E+02    0.12406E-02   -0.51726E-03 27905   0.418E-01    0.123E-01
RMM:  12    -0.659269920847E+02   -0.13161E-02   -0.17329E-03 22530   0.321E-01    0.588E-01
RMM:  13    -0.659259869590E+02    0.10051E-02   -0.11545E-03 22439   0.225E-01    0.428E-01
RMM:  14    -0.659254019688E+02    0.58499E-03   -0.21992E-03 22390   0.271E-01    0.769E-02
RMM:  15    -0.659254146516E+02   -0.12683E-04   -0.25470E-04 26482   0.600E-02    0.365E-02
RMM:  16    -0.659254173256E+02   -0.26740E-05   -0.34558E-05 25682   0.242E-02    0.234E-02
RMM:  17    -0.659254234122E+02   -0.60866E-05   -0.21799E-05 26100   0.279E-02    0.185E-02
RMM:  18    -0.659254197295E+02    0.36827E-05   -0.86340E-06 21907   0.212E-02    0.884E-03
RMM:  19    -0.659254190986E+02    0.63092E-06   -0.95402E-07 29414   0.510E-03    0.516E-03
RMM:  20    -0.659254182772E+02    0.82139E-06   -0.62120E-07 24606   0.512E-03    0.396E-03
RMM:  21    -0.659254177441E+02    0.53309E-06   -0.40689E-07 21677   0.362E-03    0.268E-03
RMM:  22    -0.659254174952E+02    0.24893E-06   -0.87359E-08 19142   0.120E-03    0.173E-03
RMM:  23    -0.659254173370E+02    0.15821E-06   -0.19856E-08 12570   0.972E-04    0.101E-03
RMM:  24    -0.659254170943E+02    0.24266E-06   -0.98721E-08 18296   0.200E-03    0.355E-04
RMM:  25    -0.659254170374E+02    0.56894E-07   -0.14973E-08 12540   0.614E-04    0.207E-04
RMM:  26    -0.659254170347E+02    0.26976E-08   -0.57042E-09 12481   0.538E-04
  20 F= -.65925417E+02 E0= -.65925417E+02  d E =0.164200E-07
 curvature:   0.00 expect dE= 0.178-312 dE for cont linesearch  0.178-312
 -----------------------------------------------------------------------------
|                                                                             |
|     EEEEEEE  RRRRRR   RRRRRR   OOOOOOO  RRRRRR      ###     ###     ###     |
|     E        R     R  R     R  O     O  R     R     ###     ###     ###     |
|     E        R     R  R     R  O     O  R     R     ###     ###     ###     |
|     EEEEE    RRRRRR   RRRRRR   O     O  RRRRRR       #       #       #      |
|     E        R   R    R   R    O     O  R   R                               |
|     E        R    R   R    R   O     O  R    R      ###     ###     ###     |
|     EEEEEEE  R     R  R     R  OOOOOOO  R     R     ###     ###     ###     |
|                                                                             |
|     ZBRENT: fatal error in bracketing                                       |
|      please rerun with smaller EDIFF, or copy CONTCAR                       |
|      to POSCAR and continue                                                 |
|                                                                             |
|       ---->  I REFUSE TO CONTINUE WITH THIS SICK JOB ... BYE!!! <----       |
|                                                                             |
 -----------------------------------------------------------------------------

For us, there is only the trying. The rest is not our business. ~T.S.Eliot
