unknown system                          
           1
     0.000000    5.435812    5.435812
     5.435812    0.000000    5.435812
     5.435812    5.435812    0.000000
   Si
    16
Direct configuration=     1
   0.12559428  0.12544069  0.12529412
   0.62492188  0.12490423  0.12595270
   0.12474603  0.62495754  0.12554301
   0.62568377  0.62443573  0.12445031
   0.12484131  0.12586265  0.62587769
   0.62517214  0.12474251  0.62552643
   0.12520280  0.62540766  0.62528821
   0.62538577  0.62560848  0.62545670
   0.99985281  0.00089526  0.00045304
   0.49948385  0.99976920  0.00064355
   0.99953963  0.50038148  0.00034469
   0.50045390  0.50065763  0.99965620
   0.99992529  0.00041396  0.50016771
   0.50036506  0.99947814  0.50077689
   0.99957831  0.49947040  0.50076889
   0.49979694  0.49963581  0.50086376
Direct configuration=     2
   0.12506423  0.12549958  0.12540129
   0.62480664  0.12513042  0.12556683
   0.12485443  0.62530456  0.12537356
   0.62501755  0.62475287  0.12538994
   0.12506119  0.12507357  0.62572680
   0.62505660  0.12481077  0.62564045
   0.12492373  0.62527548  0.62521242
   0.62512639  0.62508806  0.62527237
   0.99991717  0.00039310  0.00080329
   0.50022855  0.99964452  0.00055207
   0.00010892  0.50029705  0.00009387
   0.49997047  0.50009062  0.00014364
   0.00016621  0.00045113  0.50039743
   0.49998680  0.00010737  0.50066434
   0.00000751  0.50018289  0.50046109
   0.50024740  0.49995935  0.50036451
Direct configuration=     3
   0.12509616  0.12549603  0.12539483
   0.62481358  0.12511680  0.12559008
   0.12484790  0.62528366  0.12538377
   0.62505768  0.62473377  0.12533334
   0.12504795  0.12512110  0.62573589
   0.62506356  0.12480666  0.62563359
   0.12494054  0.62528344  0.62521698
   0.62514202  0.62511941  0.62528348
   0.99991329  0.00042335  0.00078219
   0.50018370  0.99965203  0.00055758
   0.00007463  0.50030214  0.00010897
   0.49999958  0.50012477  0.00011428
   0.00015169  0.00044889  0.50038359
   0.50000958  0.00006947  0.50067112
  -0.00001834  0.50013998  0.50047963
   0.50022027  0.49993986  0.50039459
Direct configuration=     4
   0.12515576  0.12539241  0.12542840
   0.62486272  0.12508352  0.12555562
   0.12488949  0.62532415  0.12536716
   0.62506184  0.62474051  0.12541496
   0.12502288  0.12512316  0.62576495
   0.62512993  0.12492581  0.62559730
   0.12508321  0.62533688  0.62514159
   0.62509379  0.62511177  0.62525631
   0.99987455  0.00033146  0.00077141
   0.50015888  0.99973714  0.00059020
   0.00004373  0.50036865  0.00013669
   0.49987812  0.50007204  0.00024644
   0.00011569  0.00034766  0.50043655
   0.49998875  0.00009735  0.50056776
   0.00006927  0.50013069  0.50037872
   0.50011518  0.49993816  0.50040981
Direct configuration=     5
   0.12516135  0.12538269  0.12543155
   0.62486733  0.12508040  0.12555239
   0.12489339  0.62532795  0.12536561
   0.62506223  0.62474114  0.12542262
   0.12502052  0.12512335  0.62576768
   0.62513615  0.12493698  0.62559390
   0.12509660  0.62534190  0.62513451
   0.62508927  0.62511106  0.62525376
   0.99987092  0.00032285  0.00077040
   0.50015655  0.99974512  0.00059326
   0.00004083  0.50037489  0.00013929
   0.49986672  0.50006709  0.00025884
   0.00011232  0.00033816  0.50044152
   0.49998680  0.00009997  0.50055807
   0.00007749  0.50012981  0.50036926
   0.50010532  0.49993800  0.50041124
Direct configuration=     6
   0.12514869  0.12535486  0.12544071
   0.62488129  0.12507092  0.12554986
   0.12488792  0.62531592  0.12536832
   0.62504953  0.62477072  0.12541461
   0.12500082  0.12513404  0.62574965
   0.62512219  0.12495295  0.62558346
   0.12510299  0.62532734  0.62515407
   0.62507561  0.62510302  0.62527177
   0.99988190  0.00031266  0.00074692
   0.50014887  0.99977592  0.00058663
   0.00005245  0.50036516  0.00015934
   0.49988554  0.50007216  0.00027689
   0.00012199  0.00032143  0.50044126
   0.50000502  0.00010345  0.50054454
   0.00008439  0.50013311  0.50036332
   0.50009457  0.49994771  0.50041254
Direct configuration=     7
   0.12513154  0.12531713  0.12545312
   0.62490022  0.12505807  0.12554643
   0.12488050  0.62529960  0.12537200
   0.62503232  0.62481082  0.12540375
   0.12497410  0.12514852  0.62572519
   0.62510326  0.12497459  0.62556930
   0.12511165  0.62530761  0.62518059
   0.62505710  0.62509212  0.62529620
   0.99989678  0.00029886  0.00071510
   0.50013847  0.99981769  0.00057764
   0.00006820  0.50035197  0.00018652
   0.49991105  0.50007903  0.00030137
   0.00013510  0.00029874  0.50044090
   0.50002973  0.00010816  0.50052621
   0.00009375  0.50013758  0.50035528
   0.50008000  0.49996087  0.50041431
Direct configuration=     8
   0.12512315  0.12530378  0.12545536
   0.62491200  0.12505980  0.12554240
   0.12489026  0.62529091  0.12537348
   0.62503310  0.62483693  0.12539982
   0.12497760  0.12515389  0.62570381
   0.62510089  0.12498252  0.62556156
   0.12510909  0.62529432  0.62520003
   0.62505439  0.62508905  0.62530828
   0.99990483  0.00028886  0.00069598
   0.50012833  0.99984045  0.00056889
   0.00006693  0.50033413  0.00020398
   0.49991847  0.50007863  0.00031329
   0.00013084  0.00028701  0.50044327
   0.50002928  0.00010656  0.50052514
   0.00008671  0.50014422  0.50035894
   0.50007791  0.49997032  0.50040967
Direct configuration=     9
   0.12509798  0.12526371  0.12546208
   0.62494734  0.12506500  0.12553032
   0.12491951  0.62526484  0.12537795
   0.62503544  0.62491525  0.12538804
   0.12498808  0.12516998  0.62563966
   0.62509379  0.12500631  0.62553832
   0.12510140  0.62525444  0.62525834
   0.62504627  0.62507984  0.62534450
   0.99992895  0.00025884  0.00063862
   0.50009791  0.99990876  0.00054267
   0.00006313  0.50028060  0.00025637
   0.49994074  0.50007743  0.00034904
   0.00011805  0.00025183  0.50045040
   0.50002794  0.00010173  0.50052195
   0.00006560  0.50016414  0.50036990
   0.50007165  0.49999867  0.50039574
Direct configuration=    10
   0.12504764  0.12518358  0.12547553
   0.62501800  0.12507540  0.12550615
   0.12497803  0.62521269  0.12538688
   0.62504013  0.62507190  0.12536447
   0.12500905  0.12520217  0.62551137
   0.62507958  0.12505389  0.62549186
   0.12508602  0.62517467  0.62537497
   0.62503004  0.62506141  0.62541693
   0.99997720  0.00019881  0.00052389
   0.50003708  0.00004537  0.00049021
   0.00005553  0.50017356  0.00036114
   0.49998526  0.50007503  0.00042055
   0.00009248  0.00018145  0.50046465
   0.50002525  0.00009207  0.50051557
   0.00002337  0.50020398  0.50039184
   0.50005912  0.50005539  0.50036788
Direct configuration=    11
   0.12503145  0.12515782  0.12547985
   0.62504073  0.12507875  0.12549838
   0.12499685  0.62519592  0.12538975
   0.62504163  0.62512226  0.12535690
   0.12501579  0.12521252  0.62547012
   0.62507501  0.12506918  0.62547692
   0.12508107  0.62514902  0.62541247
   0.62502482  0.62505549  0.62544023
   0.99999272  0.00017951  0.00048700
   0.50001752  0.00008929  0.00047334
   0.00005309  0.50013914  0.00039483
   0.49999958  0.50007426  0.00044355
   0.00008425  0.00015883  0.50046924
   0.50002438  0.00008897  0.50051352
   0.00000979  0.50021679  0.50039889
   0.50005510  0.50007362  0.50035893
Direct configuration=    12
   0.12501766  0.12512935  0.12548035
   0.62501998  0.12508213  0.12550506
   0.12501622  0.62516746  0.12540711
   0.62504706  0.62513557  0.12536462
   0.12502804  0.12521552  0.62544444
   0.62507008  0.12508682  0.62545769
   0.12506261  0.62513815  0.62542659
   0.62500239  0.62507329  0.62544794
   0.00002965  0.00016879  0.00043862
   0.50001719  0.00014154  0.00045657
   0.00003819  0.50012636  0.00042582
   0.50001560  0.50008308  0.00045039
   0.00006669  0.00013531  0.50048029
   0.50003014  0.00007261  0.50050712
   0.00001003  0.50021669  0.50040697
   0.50007223  0.50008870  0.50036432
Direct configuration=    13
   0.12501864  0.12513136  0.12548031
   0.62502145  0.12508189  0.12550458
   0.12501484  0.62516948  0.12540588
   0.62504668  0.62513463  0.12536407
   0.12502717  0.12521531  0.62544626
   0.62507043  0.12508556  0.62545905
   0.12506392  0.62513892  0.62542559
   0.62500399  0.62507203  0.62544740
   0.00002703  0.00016955  0.00044205
   0.50001722  0.00013783  0.00045776
   0.00003925  0.50012727  0.00042363
   0.50001447  0.50008245  0.00044990
   0.00006794  0.00013698  0.50047951
   0.50002973  0.00007377  0.50050758
   0.00001002  0.50021670  0.50040639
   0.50007102  0.50008763  0.50036394
Direct configuration=    14
   0.12502083  0.12512875  0.12547903
   0.62502180  0.12508628  0.12550266
   0.12501836  0.62516379  0.12541162
   0.62504117  0.62513589  0.12537370
   0.12503135  0.12520836  0.62544080
   0.62506473  0.12509172  0.62545413
   0.12506545  0.62513682  0.62542422
   0.62500682  0.62507871  0.62544596
   0.00002502  0.00016485  0.00043969
   0.50002107  0.00013757  0.00045450
   0.00003965  0.50012889  0.00042513
   0.50001789  0.50008675  0.00044612
   0.00006394  0.00013603  0.50047929
   0.50003063  0.00007683  0.50050207
   0.00000772  0.50020843  0.50041109
   0.50006736  0.50009169  0.50037388
Direct configuration=    15
   0.12502437  0.12512453  0.12547695
   0.62502238  0.12509339  0.12549955
   0.12502405  0.62515459  0.12542091
   0.62503226  0.62513793  0.12538929
   0.12503810  0.12519712  0.62543196
   0.62505552  0.12510169  0.62544616
   0.12506793  0.62513342  0.62542200
   0.62501140  0.62508952  0.62544363
   0.00002178  0.00015725  0.00043588
   0.50002730  0.00013714  0.00044924
   0.00004029  0.50013151  0.00042757
   0.50002342  0.50009371  0.00044000
   0.00005746  0.00013448  0.50047895
   0.50003207  0.00008179  0.50049316
   0.00000400  0.50019505  0.50041869
   0.50006144  0.50009826  0.50038996
Direct configuration=    16
   0.12502547  0.12512485  0.12547192
   0.62502431  0.12509859  0.12549116
   0.12502541  0.62515136  0.12542374
   0.62503225  0.62513648  0.12539696
   0.12503720  0.12518775  0.62543331
   0.62505231  0.12510530  0.62544567
   0.12506287  0.62513238  0.62542489
   0.62501432  0.62509473  0.62544361
   0.00002343  0.00015324  0.00043668
   0.50002849  0.00013626  0.00044760
   0.00003942  0.50013127  0.00042915
   0.50002527  0.50009838  0.00044022
   0.00005407  0.00013372  0.50047396
   0.50003256  0.00008856  0.50048602
   0.00000852  0.50018580  0.50042219
   0.50005787  0.50010270  0.50039681
Direct configuration=    17
   0.12502875  0.12512582  0.12545684
   0.62503011  0.12511421  0.12546599
   0.12502947  0.62514166  0.12543221
   0.62503222  0.62513215  0.12541997
   0.12503450  0.12515963  0.62543734
   0.62504267  0.12511613  0.62544421
   0.12504770  0.62512925  0.62543356
   0.62502311  0.62511035  0.62544358
   0.00002839  0.00014121  0.00043910
   0.50003208  0.00013362  0.00044267
   0.00003681  0.50013055  0.00043390
   0.50003082  0.50011240  0.00044088
   0.00004390  0.00013144  0.50045897
   0.50003401  0.00010889  0.50046463
   0.00002208  0.50015805  0.50043269
   0.50004717  0.50011601  0.50041734
Direct configuration=    18
   0.12503530  0.12512775  0.12542668
   0.62504172  0.12514544  0.12541565
   0.12503759  0.62512227  0.12544915
   0.62503217  0.62512347  0.12546599
   0.12502910  0.12510340  0.62544541
   0.62502338  0.12513780  0.62544130
   0.12501735  0.62512299  0.62545090
   0.62504067  0.62514159  0.62544350
   0.00003829  0.00011715  0.00044395
   0.50003927  0.00012834  0.00043283
   0.00003157  0.50012912  0.00044340
   0.50004192  0.50014043  0.00044221
   0.00002355  0.00012688  0.50042901
   0.50003692  0.00014954  0.50042184
   0.00004921  0.50010257  0.50045370
   0.50002575  0.50014263  0.50045839
Direct configuration=    19
   0.12503149  0.12512662  0.12544422
   0.62503497  0.12512728  0.12544492
   0.12503287  0.62513355  0.12543930
   0.62503220  0.62512852  0.12543923
   0.12503224  0.12513610  0.62544072
   0.62503460  0.12512520  0.62544299
   0.12503500  0.62512663  0.62544082
   0.62503046  0.62512342  0.62544355
   0.00003253  0.00013114  0.00044113
   0.50003509  0.00013141  0.00043855
   0.00003462  0.50012995  0.00043788
   0.50003547  0.50012413  0.00044144
   0.00003538  0.00012953  0.50044643
   0.50003523  0.00012590  0.50044672
   0.00003344  0.50013483  0.50044148
   0.50003820  0.50012715  0.50043452
Direct configuration=    20
   0.12503189  0.12512674  0.12544236
   0.62503569  0.12512920  0.12544182
   0.12503337  0.62513235  0.12544034
   0.62503220  0.62512798  0.12544206
   0.12503191  0.12513264  0.62544122
   0.62503341  0.12512653  0.62544281
   0.12503313  0.62512624  0.62544188
   0.62503154  0.62512535  0.62544354
   0.00003314  0.00012966  0.00044143
   0.50003553  0.00013108  0.00043795
   0.00003429  0.50012986  0.00043846
   0.50003615  0.50012585  0.00044152
   0.00003413  0.00012925  0.50044459
   0.50003541  0.00012841  0.50044408
   0.00003511  0.50013142  0.50044278
   0.50003688  0.50012879  0.50043705
Direct configuration=    21
   0.12503521  0.12512957  0.12543871
   0.62503499  0.12513056  0.12543758
   0.12503581  0.62512527  0.12544331
   0.62503565  0.62513021  0.12544265
   0.12503500  0.12512368  0.62544239
   0.62503372  0.12513294  0.62543952
   0.12503342  0.62512986  0.62544255
   0.62503734  0.62513248  0.62544087
   0.00003517  0.00012711  0.00044028
   0.50003303  0.00012794  0.00044288
   0.00003257  0.50012723  0.00044490
   0.50003351  0.50013230  0.00044271
   0.00003148  0.00012680  0.50043855
   0.50003295  0.00013156  0.50043726
   0.00003410  0.50012421  0.50044235
   0.50002982  0.50012967  0.50044738
Direct configuration=    22
   0.12503367  0.12512826  0.12544040
   0.62503531  0.12512993  0.12543955
   0.12503468  0.62512855  0.12544193
   0.62503405  0.62512918  0.12544238
   0.12503357  0.12512783  0.62544184
   0.62503357  0.12512997  0.62544105
   0.12503329  0.62512818  0.62544224
   0.62503465  0.62512917  0.62544211
   0.00003423  0.00012829  0.00044081
   0.50003419  0.00012939  0.00044059
   0.00003337  0.50012845  0.00044192
   0.50003473  0.50012931  0.00044216
   0.00003271  0.00012793  0.50044135
   0.50003409  0.00013010  0.50044042
   0.00003457  0.50012755  0.50044255
   0.50003309  0.50012926  0.50044259
Direct configuration=    23
   0.12503370  0.12512828  0.12544037
   0.62503531  0.12512994  0.12543951
   0.12503470  0.62512849  0.12544196
   0.62503408  0.62512920  0.12544238
   0.12503359  0.12512776  0.62544185
   0.62503358  0.12513002  0.62544102
   0.12503329  0.62512821  0.62544225
   0.62503470  0.62512923  0.62544208
   0.00003425  0.00012827  0.00044080
   0.50003417  0.00012937  0.00044063
   0.00003335  0.50012843  0.00044197
   0.50003471  0.50012937  0.00044217
   0.00003269  0.00012791  0.50044130
   0.50003407  0.00013012  0.50044037
   0.00003456  0.50012749  0.50044255
   0.50003303  0.50012927  0.50044268
Direct configuration=    24
   0.12503396  0.12512841  0.12544114
   0.62503414  0.12512943  0.12544064
   0.12503431  0.62512777  0.12544213
   0.62503369  0.62512946  0.12544266
   0.12503410  0.12512754  0.62544068
   0.62503321  0.12512959  0.62544110
   0.12503333  0.62512832  0.62544239
   0.62503411  0.62512971  0.62544172
   0.00003453  0.00012785  0.00044097
   0.50003394  0.00012942  0.00044112
   0.00003414  0.50012839  0.00044233
   0.50003452  0.50012968  0.00044161
   0.00003372  0.00012854  0.50044072
   0.50003420  0.00012960  0.50044033
   0.00003433  0.50012771  0.50044189
   0.50003355  0.50012994  0.50044246
Direct configuration=    25
   0.12503389  0.12512838  0.12544094
   0.62503444  0.12512956  0.12544034
   0.12503441  0.62512796  0.12544208
   0.62503379  0.62512939  0.12544259
   0.12503397  0.12512759  0.62544099
   0.62503330  0.12512970  0.62544108
   0.12503332  0.62512829  0.62544235
   0.62503426  0.62512958  0.62544182
   0.00003446  0.00012796  0.00044093
   0.50003400  0.00012940  0.00044099
   0.00003394  0.50012840  0.00044223
   0.50003457  0.50012960  0.00044176
   0.00003345  0.00012838  0.50044087
   0.50003417  0.00012974  0.50044034
   0.00003439  0.50012765  0.50044206
   0.50003342  0.50012976  0.50044252
Direct configuration=    26
   0.12503390  0.12512838  0.12544096
   0.62503441  0.12512955  0.12544037
   0.12503440  0.62512794  0.12544209
   0.62503378  0.62512940  0.12544260
   0.12503398  0.12512759  0.62544095
   0.62503329  0.12512969  0.62544108
   0.12503332  0.62512829  0.62544236
   0.62503425  0.62512960  0.62544181
   0.00003446  0.00012795  0.00044093
   0.50003400  0.00012940  0.00044101
   0.00003396  0.50012840  0.00044224
   0.50003456  0.50012961  0.00044174
   0.00003348  0.00012839  0.50044086
   0.50003417  0.00012972  0.50044034
   0.00003438  0.50012766  0.50044205
   0.50003343  0.50012978  0.50044251
Direct configuration=    27
   0.12503389  0.12512838  0.12544095
   0.62503443  0.12512956  0.12544036
   0.12503440  0.62512795  0.12544209
   0.62503379  0.62512940  0.12544259
   0.12503398  0.12512759  0.62544097
   0.62503330  0.12512970  0.62544108
   0.12503332  0.62512829  0.62544235
   0.62503426  0.62512959  0.62544181
   0.00003446  0.00012796  0.00044093
   0.50003400  0.00012940  0.00044100
   0.00003395  0.50012840  0.00044224
   0.50003457  0.50012960  0.00044175
   0.00003346  0.00012838  0.50044086
   0.50003417  0.00012973  0.50044034
   0.00003439  0.50012765  0.50044206
   0.50003342  0.50012977  0.50044252
Direct configuration=    28
   0.12503389  0.12512838  0.12544095
   0.62503444  0.12512956  0.12544035
   0.12503441  0.62512796  0.12544209
   0.62503379  0.62512940  0.12544259
   0.12503397  0.12512759  0.62544098
   0.62503330  0.12512970  0.62544108
   0.12503332  0.62512829  0.62544235
   0.62503426  0.62512959  0.62544181
   0.00003446  0.00012796  0.00044093
   0.50003400  0.00012940  0.00044100
   0.00003394  0.50012840  0.00044224
   0.50003457  0.50012960  0.00044175
   0.00003346  0.00012838  0.50044087
   0.50003417  0.00012973  0.50044034
   0.00003439  0.50012765  0.50044206
   0.50003342  0.50012977  0.50044252
Direct configuration=    29
   0.12503389  0.12512838  0.12544094
   0.62503444  0.12512956  0.12544035
   0.12503441  0.62512796  0.12544209
   0.62503379  0.62512939  0.12544259
   0.12503397  0.12512759  0.62544098
   0.62503330  0.12512970  0.62544108
   0.12503332  0.62512829  0.62544235
   0.62503426  0.62512958  0.62544181
   0.00003446  0.00012796  0.00044093
   0.50003400  0.00012940  0.00044099
   0.00003394  0.50012840  0.00044223
   0.50003457  0.50012960  0.00044176
   0.00003345  0.00012838  0.50044087
   0.50003417  0.00012974  0.50044034
   0.00003439  0.50012765  0.50044206
   0.50003342  0.50012977  0.50044252
Direct configuration=    30
   0.12503389  0.12512838  0.12544094
   0.62503444  0.12512956  0.12544035
   0.12503441  0.62512796  0.12544209
   0.62503379  0.62512939  0.12544259
   0.12503397  0.12512759  0.62544098
   0.62503330  0.12512970  0.62544108
   0.12503332  0.62512829  0.62544235
   0.62503426  0.62512958  0.62544181
   0.00003446  0.00012796  0.00044093
   0.50003400  0.00012940  0.00044099
   0.00003394  0.50012840  0.00044223
   0.50003457  0.50012960  0.00044176
   0.00003345  0.00012838  0.50044087
   0.50003417  0.00012974  0.50044034
   0.00003439  0.50012765  0.50044206
   0.50003342  0.50012977  0.50044252
Direct configuration=    31
   0.12503389  0.12512838  0.12544094
   0.62503444  0.12512956  0.12544034
   0.12503441  0.62512796  0.12544209
   0.62503379  0.62512939  0.12544259
   0.12503397  0.12512759  0.62544098
   0.62503330  0.12512970  0.62544108
   0.12503332  0.62512829  0.62544235
   0.62503426  0.62512958  0.62544181
   0.00003446  0.00012796  0.00044093
   0.50003400  0.00012940  0.00044099
   0.00003394  0.50012840  0.00044223
   0.50003457  0.50012960  0.00044176
   0.00003345  0.00012838  0.50044087
   0.50003417  0.00012974  0.50044034
   0.00003439  0.50012765  0.50044206
   0.50003342  0.50012976  0.50044252
Direct configuration=    32
   0.12503389  0.12512838  0.12544094
   0.62503444  0.12512956  0.12544034
   0.12503441  0.62512796  0.12544208
   0.62503379  0.62512939  0.12544259
   0.12503397  0.12512759  0.62544098
   0.62503330  0.12512970  0.62544108
   0.12503332  0.62512829  0.62544235
   0.62503426  0.62512958  0.62544182
   0.00003446  0.00012796  0.00044093
   0.50003400  0.00012940  0.00044099
   0.00003394  0.50012840  0.00044223
   0.50003457  0.50012960  0.00044176
   0.00003345  0.00012838  0.50044087
   0.50003417  0.00012974  0.50044034
   0.00003439  0.50012765  0.50044206
   0.50003342  0.50012976  0.50044252
Direct configuration=    33
   0.12503389  0.12512838  0.12544094
   0.62503444  0.12512956  0.12544034
   0.12503441  0.62512796  0.12544208
   0.62503379  0.62512939  0.12544259
   0.12503397  0.12512759  0.62544098
   0.62503330  0.12512970  0.62544108
   0.12503332  0.62512829  0.62544235
   0.62503426  0.62512958  0.62544182
   0.00003446  0.00012796  0.00044093
   0.50003400  0.00012940  0.00044099
   0.00003394  0.50012840  0.00044223
   0.50003457  0.50012960  0.00044176
   0.00003345  0.00012838  0.50044087
   0.50003417  0.00012974  0.50044034
   0.00003439  0.50012765  0.50044206
   0.50003342  0.50012976  0.50044252
Direct configuration=    34
   0.12503389  0.12512838  0.12544094
   0.62503444  0.12512956  0.12544034
   0.12503441  0.62512796  0.12544208
   0.62503379  0.62512939  0.12544259
   0.12503397  0.12512759  0.62544098
   0.62503330  0.12512970  0.62544108
   0.12503332  0.62512829  0.62544235
   0.62503426  0.62512958  0.62544182
   0.00003446  0.00012796  0.00044093
   0.50003400  0.00012940  0.00044099
   0.00003394  0.50012840  0.00044223
   0.50003457  0.50012960  0.00044176
   0.00003345  0.00012838  0.50044087
   0.50003417  0.00012974  0.50044034
   0.00003439  0.50012765  0.50044206
   0.50003342  0.50012976  0.50044252
Direct configuration=    35
   0.12503389  0.12512838  0.12544094
   0.62503444  0.12512956  0.12544034
   0.12503441  0.62512796  0.12544208
   0.62503379  0.62512939  0.12544259
   0.12503397  0.12512759  0.62544099
   0.62503330  0.12512970  0.62544108
   0.12503332  0.62512829  0.62544235
   0.62503426  0.62512958  0.62544182
   0.00003446  0.00012796  0.00044093
   0.50003400  0.00012940  0.00044099
   0.00003394  0.50012840  0.00044223
   0.50003457  0.50012960  0.00044176
   0.00003345  0.00012838  0.50044087
   0.50003417  0.00012974  0.50044034
   0.00003439  0.50012765  0.50044206
   0.50003342  0.50012976  0.50044252
Direct configuration=    36
   0.12503389  0.12512838  0.12544094
   0.62503444  0.12512956  0.12544034
   0.12503441  0.62512796  0.12544208
   0.62503379  0.62512939  0.12544259
   0.12503397  0.12512759  0.62544099
   0.62503330  0.12512970  0.62544108
   0.12503332  0.62512829  0.62544235
   0.62503426  0.62512958  0.62544182
   0.00003446  0.00012796  0.00044093
   0.50003400  0.00012940  0.00044099
   0.00003394  0.50012840  0.00044223
   0.50003457  0.50012960  0.00044176
   0.00003345  0.00012838  0.50044087
   0.50003417  0.00012974  0.50044034
   0.00003439  0.50012765  0.50044206
   0.50003342  0.50012976  0.50044252
Direct configuration=    37
   0.12503389  0.12512838  0.12544094
   0.62503444  0.12512956  0.12544034
   0.12503441  0.62512796  0.12544208
   0.62503379  0.62512939  0.12544259
   0.12503397  0.12512759  0.62544099
   0.62503330  0.12512970  0.62544108
   0.12503332  0.62512829  0.62544235
   0.62503426  0.62512958  0.62544182
   0.00003446  0.00012796  0.00044093
   0.50003400  0.00012940  0.00044099
   0.00003394  0.50012840  0.00044223
   0.50003457  0.50012960  0.00044176
   0.00003345  0.00012838  0.50044087
   0.50003417  0.00012974  0.50044034
   0.00003439  0.50012765  0.50044206
   0.50003342  0.50012976  0.50044252
Direct configuration=    38
   0.12503389  0.12512838  0.12544094
   0.62503444  0.12512956  0.12544034
   0.12503441  0.62512796  0.12544208
   0.62503379  0.62512939  0.12544259
   0.12503397  0.12512759  0.62544099
   0.62503330  0.12512970  0.62544108
   0.12503332  0.62512829  0.62544235
   0.62503426  0.62512958  0.62544182
   0.00003446  0.00012796  0.00044093
   0.50003400  0.00012940  0.00044099
   0.00003394  0.50012840  0.00044223
   0.50003457  0.50012960  0.00044176
   0.00003345  0.00012838  0.50044087
   0.50003417  0.00012974  0.50044034
   0.00003439  0.50012765  0.50044206
   0.50003342  0.50012976  0.50044252
Direct configuration=    39
   0.12503389  0.12512838  0.12544094
   0.62503444  0.12512956  0.12544034
   0.12503441  0.62512796  0.12544208
   0.62503379  0.62512939  0.12544259
   0.12503397  0.12512759  0.62544099
   0.62503330  0.12512970  0.62544108
   0.12503332  0.62512829  0.62544235
   0.62503426  0.62512958  0.62544182
   0.00003446  0.00012796  0.00044093
   0.50003400  0.00012940  0.00044099
   0.00003394  0.50012840  0.00044223
   0.50003457  0.50012960  0.00044176
   0.00003345  0.00012838  0.50044087
   0.50003417  0.00012974  0.50044034
   0.00003439  0.50012765  0.50044206
   0.50003342  0.50012976  0.50044252
Direct configuration=    40
   0.12503389  0.12512838  0.12544094
   0.62503444  0.12512956  0.12544034
   0.12503441  0.62512796  0.12544208
   0.62503379  0.62512939  0.12544259
   0.12503397  0.12512759  0.62544099
   0.62503330  0.12512970  0.62544108
   0.12503332  0.62512829  0.62544235
   0.62503426  0.62512958  0.62544182
   0.00003446  0.00012796  0.00044093
   0.50003400  0.00012940  0.00044099
   0.00003394  0.50012840  0.00044223
   0.50003457  0.50012960  0.00044176
   0.00003345  0.00012838  0.50044087
   0.50003417  0.00012974  0.50044034
   0.00003439  0.50012765  0.50044206
   0.50003342  0.50012976  0.50044252
Direct configuration=    41
   0.12503389  0.12512838  0.12544094
   0.62503444  0.12512956  0.12544034
   0.12503441  0.62512796  0.12544208
   0.62503379  0.62512939  0.12544259
   0.12503397  0.12512759  0.62544099
   0.62503330  0.12512970  0.62544108
   0.12503332  0.62512829  0.62544235
   0.62503426  0.62512958  0.62544182
   0.00003446  0.00012796  0.00044093
   0.50003400  0.00012940  0.00044099
   0.00003394  0.50012840  0.00044223
   0.50003457  0.50012960  0.00044176
   0.00003345  0.00012838  0.50044087
   0.50003417  0.00012974  0.50044034
   0.00003439  0.50012765  0.50044206
   0.50003342  0.50012976  0.50044252
