 ----------------------------------------------------
    OOO  PPPP  EEEEE N   N M   M PPPP
   O   O P   P E     NN  N MM MM P   P
   O   O PPPP  EEEEE N N N M M M PPPP   -- VERSION
   O   O P     E     N  NN M   M P
    OOO  P     EEEEE N   N M   M P
 ----------------------------------------------------
 running  128 mpi-ranks, with    1 threads/rank
 distrk:  each k-point on  128 cores,    1 groups
 distr:  one band on   16 cores,    8 groups
 vasp.6.3.0 20Jan22 (build Feb 21 2022 11:18:28) complex                         
 POSCAR found type information on POSCAR PbTe
 POSCAR found :  2 types and      16 ions
 Reading from existing POTCAR
 scaLAPACK will be used
 Reading from existing POTCAR
 -----------------------------------------------------------------------------
|                                                                             |
|               ----> ADVICE to this user running VASP <----                  |
|                                                                             |
|     You enforced a specific xc type in the INCAR file but a different       |
|     type was found in the POTCAR file.                                      |
|     I HOPE YOU KNOW WHAT YOU ARE DOING!                                     |
|                                                                             |
 -----------------------------------------------------------------------------

 LDA part: xc-table for Pade appr. of Perdew
 POSCAR, INCAR and KPOINTS ok, starting setup
 FFT: planning ... GRIDC
 FFT: planning ... GRID_SOFT
 FFT: planning ... GRID
 WAVECAR not read
 WARNING: random wavefunctions but no delay for mixing, default for NELMDL
 entering main loop
       N       E                     dE             d eps       ncg     rms          rms(c)
DAV:   1     0.184966813780E+04    0.18497E+04   -0.73710E+04 13056   0.182E+03
DAV:   2     0.203728091896E+03   -0.16459E+04   -0.16035E+04 13072   0.472E+02
DAV:   3    -0.472626639922E+02   -0.25099E+03   -0.23842E+03 15944   0.210E+02
DAV:   4    -0.660765893526E+02   -0.18814E+02   -0.18501E+02 15696   0.562E+01
DAV:   5    -0.669812956923E+02   -0.90471E+00   -0.90208E+00 16408   0.116E+01    0.887E+00
RMM:   6    -0.659549961602E+02    0.10263E+01   -0.19426E+00 13197   0.380E+00    0.510E+00
RMM:   7    -0.659580655565E+02   -0.30694E-02   -0.19782E+00 13914   0.298E+00    0.164E+00
RMM:   8    -0.659431250573E+02    0.14940E-01   -0.40543E-01 13577   0.375E+00    0.503E-01
RMM:   9    -0.659258095548E+02    0.17316E-01   -0.10116E-01 15024   0.173E+00    0.347E-01
RMM:  10    -0.659289089609E+02   -0.30994E-02   -0.29976E-02 15432   0.691E-01    0.236E-01
RMM:  11    -0.659279070842E+02    0.10019E-02   -0.56560E-03 16872   0.329E-01    0.205E-01
RMM:  12    -0.659271591045E+02    0.74798E-03   -0.10126E-02 13655   0.318E-01    0.106E-01
RMM:  13    -0.659269835922E+02    0.17551E-03   -0.11038E-03 14779   0.166E-01    0.474E-02
RMM:  14    -0.659270382894E+02   -0.54697E-04   -0.38847E-04 18115   0.652E-02    0.922E-02
RMM:  15    -0.659269391624E+02    0.99127E-04   -0.17152E-04 16001   0.338E-02    0.680E-02
RMM:  16    -0.659269304423E+02    0.87201E-05   -0.94644E-05 15095   0.197E-02    0.469E-02
RMM:  17    -0.659269306646E+02   -0.22227E-06   -0.13867E-05 15401   0.131E-02    0.391E-02
RMM:  18    -0.659269302427E+02    0.42185E-06   -0.28033E-06 17025   0.468E-03    0.327E-02
RMM:  19    -0.659269287199E+02    0.15228E-05   -0.47656E-07 15609   0.324E-03    0.234E-02
RMM:  20    -0.659269280929E+02    0.62699E-06   -0.20443E-07 14000   0.244E-03    0.206E-02
RMM:  21    -0.659269267443E+02    0.13486E-05   -0.39969E-07 13868   0.246E-03    0.112E-02
RMM:  22    -0.659269256237E+02    0.11206E-05   -0.21886E-07 15001   0.144E-03    0.294E-03
RMM:  23    -0.659269254470E+02    0.17667E-06   -0.52623E-08 10589   0.112E-03    0.199E-03
RMM:  24    -0.659269253815E+02    0.65476E-07   -0.13427E-08  7674   0.534E-04    0.120E-03
RMM:  25    -0.659269253710E+02    0.10537E-07   -0.19822E-08  8382   0.443E-04    0.321E-04
RMM:  26    -0.659269253900E+02   -0.19008E-07   -0.60579E-09  7613   0.421E-04    0.196E-04
RMM:  27    -0.659269253868E+02    0.32414E-08   -0.32501E-09  7543   0.304E-04
   1 F= -.65926925E+02 E0= -.65926925E+02  d E =-.659269E+02
 curvature:   0.00 expect dE= 0.000E+00 dE for cont linesearch  0.000E+00
 trial: gam= 0.00000 g(F)=  0.109E-08 g(S)=  0.000E+00 ort = 0.000E+00 (trialstep = 0.100E+01)
 search vector abs. value=  0.119E-08
 bond charge predicted
       N       E                     dE             d eps       ncg     rms          rms(c)
DAV:   1    -0.659269253969E+02   -0.68885E-08   -0.22201E-07 12264   0.132E-03    0.187E-04
RMM:   2    -0.659269254041E+02   -0.72232E-08   -0.59436E-09  7449   0.504E-04    0.180E-04
RMM:   3    -0.659269254014E+02    0.26848E-08   -0.19219E-09  7303   0.295E-04    0.175E-04
RMM:   4    -0.659269254034E+02   -0.19900E-08   -0.85252E-10  7077   0.212E-04    0.174E-04
RMM:   5    -0.659269254024E+02    0.10277E-08   -0.44564E-10  6333   0.157E-04
   2 F= -.65926925E+02 E0= -.65926925E+02  d E =-.156306E-07
 trial-energy change:   -0.000000  1 .order   -0.000000   -0.000000   -0.000000
 step:   1.4528(harm=  1.4528)  dis= 0.00000  next Energy=   -65.926925 (dE=-0.790E-09)
 bond charge predicted
       N       E                     dE             d eps       ncg     rms          rms(c)
DAV:   1    -0.659269254031E+02    0.28376E-09   -0.48545E-08 10832   0.589E-04    0.174E-04
RMM:   2    -0.659269254063E+02   -0.31469E-08   -0.14378E-09  6877   0.263E-04    0.173E-04
RMM:   3    -0.659269254050E+02    0.12678E-08   -0.55358E-10  6447   0.159E-04    0.172E-04
RMM:   4    -0.659269254053E+02   -0.27103E-09   -0.24654E-10  5721   0.116E-04    0.173E-04
RMM:   5    -0.659269254044E+02    0.85129E-09   -0.95162E-11  3768   0.844E-05
   3 F= -.65926925E+02 E0= -.65926925E+02  d E =-.176733E-07
 curvature:  -0.79 expect dE=-0.384E-09 dE for cont linesearch -0.341E-09
 ZBRENT: increasing intervall
 opt :   2.3584  next Energy=   -65.926925 (dE=-0.187E-07)
 bond charge predicted
       N       E                     dE             d eps       ncg     rms          rms(c)
DAV:   1    -0.659269254047E+02    0.56025E-09   -0.18579E-07 11952   0.115E-03    0.175E-04
RMM:   2    -0.659269254047E+02    0.54570E-10   -0.32288E-09  6814   0.309E-04    0.173E-04
RMM:   3    -0.659269254046E+02    0.27285E-10   -0.10776E-09  6723   0.227E-04    0.173E-04
RMM:   4    -0.659269254050E+02   -0.38563E-09   -0.47206E-10  6140   0.149E-04    0.172E-04
RMM:   5    -0.659269254051E+02   -0.70941E-10   -0.21707E-10  5314   0.109E-04
   4 F= -.65926925E+02 E0= -.65926925E+02  d E =-.183391E-07
 curvature:  -2.30 expect dE=-0.987E-09 dE for cont linesearch -0.863E-09
 ZBRENT: increasing intervall
 opt :   4.1697  next Energy=   -65.926925 (dE=-0.195E-07)
 bond charge predicted
       N       E                     dE             d eps       ncg     rms          rms(c)
DAV:   1    -0.659269254059E+02   -0.85674E-09   -0.74034E-07 13784   0.228E-03    0.188E-04
RMM:   2    -0.659269254071E+02   -0.12351E-08   -0.10448E-08  6789   0.486E-04    0.174E-04
RMM:   3    -0.659269254069E+02    0.25102E-09   -0.25979E-09  6766   0.361E-04    0.173E-04
RMM:   4    -0.659269254074E+02   -0.49840E-09   -0.11948E-09  6760   0.235E-04    0.173E-04
RMM:   5    -0.659269254073E+02    0.10004E-09   -0.60317E-10  6270   0.174E-04
   5 F= -.65926925E+02 E0= -.65926925E+02  d E =-.205073E-07
 curvature:  -3.00 expect dE=-0.465E-09 dE for cont linesearch -0.265E-09
 ZBRENT: increasing intervall
 opt :   7.7922  next Energy=   -65.926925 (dE=-0.204E-07)
 bond charge predicted
       N       E                     dE             d eps       ncg     rms          rms(c)
DAV:   1    -0.659269254060E+02    0.14224E-08   -0.29601E-06 14688   0.457E-03    0.226E-04
RMM:   2    -0.659269254105E+02   -0.45293E-08   -0.40130E-08  9925   0.961E-04    0.180E-04
RMM:   3    -0.659269254106E+02   -0.12369E-09   -0.11145E-08  6772   0.670E-04    0.177E-04
RMM:   4    -0.659269254117E+02   -0.11150E-08   -0.49582E-09  6859   0.527E-04    0.175E-04
RMM:   5    -0.659269254115E+02    0.25102E-09   -0.23870E-09  6824   0.312E-04
   6 F= -.65926925E+02 E0= -.65926925E+02  d E =-.247019E-07
 curvature:   0.80 expect dE= 0.226E-09 dE for cont linesearch  0.626E-10
 ZBRENT: bracketing found
 ZBRENT: interpolating
 opt :   6.0349  next Energy=   -65.926925 (dE=-0.250E-07)
 bond charge predicted
       N       E                     dE             d eps       ncg     rms          rms(c)
DAV:   1    -0.659269254083E+02    0.34506E-08   -0.66677E-07 13568   0.221E-03    0.199E-04
RMM:   2    -0.659269254110E+02   -0.27740E-08   -0.11637E-08  6716   0.670E-04    0.182E-04
RMM:   3    -0.659269254100E+02    0.10095E-08   -0.35776E-09  6626   0.390E-04    0.174E-04
RMM:   4    -0.659269254103E+02   -0.28376E-09   -0.15919E-09  6462   0.285E-04    0.174E-04
RMM:   5    -0.659269254098E+02    0.54206E-09   -0.77131E-10  5604   0.194E-04
   7 F= -.65926925E+02 E0= -.65926925E+02  d E =-.230084E-07
 curvature:  -3.42 expect dE=-0.132E-07 dE for cont linesearch -0.118E-07
 ZBRENT: interpolating
 opt :   7.5618  next Energy=   -65.926925 (dE=-0.247E-07)
 bond charge predicted
       N       E                     dE             d eps       ncg     rms          rms(c)
DAV:   1    -0.659269254104E+02   -0.52751E-10   -0.50536E-07 13448   0.191E-03    0.190E-04
RMM:   2    -0.659269254124E+02   -0.20427E-08   -0.77214E-09  6682   0.529E-04    0.180E-04
RMM:   3    -0.659269254115E+02    0.90040E-09   -0.25537E-09  6643   0.351E-04    0.173E-04
RMM:   4    -0.659269254117E+02   -0.21646E-09   -0.11570E-09  6435   0.240E-04    0.174E-04
RMM:   5    -0.659269254112E+02    0.52205E-09   -0.58291E-10  5588   0.177E-04
   8 F= -.65926925E+02 E0= -.65926925E+02  d E =-.244399E-07
 curvature:  -0.01 expect dE=-0.117E-11 dE for cont linesearch -0.232E-12
 ZBRENT: interpolating
 opt :   7.6423  next Energy=   -65.926925 (dE=-0.244E-07)
 bond charge predicted
       N       E                     dE             d eps       ncg     rms          rms(c)
DAV:   1    -0.659269254114E+02    0.34743E-09   -0.17723E-09  7648   0.171E-04    0.174E-04
RMM:   2    -0.659269254108E+02    0.56389E-09   -0.56015E-10  3063   0.173E-04    0.173E-04
RMM:   3    -0.659269254110E+02   -0.21282E-09   -0.13789E-10  2786   0.765E-05    0.172E-04
RMM:   4    -0.659269254110E+02    0.36380E-11   -0.53493E-11  2376   0.723E-05    0.172E-04
RMM:   5    -0.659269254110E+02   -0.36380E-11   -0.21063E-12   429   0.531E-05
   9 F= -.65926925E+02 E0= -.65926925E+02  d E =-.242635E-07
 curvature:  -0.29 expect dE=-0.454E-10 dE for cont linesearch -0.322E-10
 ZBRENT: interpolating
 opt :   7.7236  next Energy=   -65.926925 (dE=-0.247E-07)
 bond charge predicted
       N       E                     dE             d eps       ncg     rms          rms(c)
DAV:   1    -0.659269254111E+02   -0.54570E-10   -0.17603E-09  7768   0.128E-04    0.172E-04
RMM:   2    -0.659269254111E+02    0.12733E-10   -0.12361E-10  2478   0.782E-05    0.172E-04
RMM:   3    -0.659269254113E+02   -0.21828E-09   -0.57282E-12   624   0.646E-05    0.172E-04
RMM:   4    -0.659269254115E+02   -0.23829E-09   -0.29981E-11  1567   0.680E-05    0.172E-04
RMM:   5    -0.659269254116E+02   -0.94587E-10   -0.68889E-12   656   0.577E-05
  10 F= -.65926925E+02 E0= -.65926925E+02  d E =-.248529E-07
 curvature:  -0.09 expect dE=-0.318E-10 dE for cont linesearch -0.260E-10
 ZBRENT: interpolating
 opt :   7.7683  next Energy=   -65.926925 (dE=-0.247E-07)
 bond charge predicted
       N       E                     dE             d eps       ncg     rms          rms(c)
DAV:   1    -0.659269254116E+02   -0.10004E-09   -0.54194E-10  7536   0.904E-05    0.172E-04
RMM:   2    -0.659269254113E+02    0.29104E-09   -0.43682E-11  1290   0.626E-05    0.172E-04
RMM:   3    -0.659269254113E+02    0.27285E-10   -0.21428E-12   291   0.469E-05    0.172E-04
RMM:   4    -0.659269254113E+02    0.72760E-11   -0.18433E-12   271   0.463E-05    0.172E-04
RMM:   5    -0.659269254113E+02   -0.90949E-11    0.00000E+00   179   0.456E-05
  11 F= -.65926925E+02 E0= -.65926925E+02  d E =-.245418E-07
 curvature:  -0.01 expect dE=-0.485E-11 dE for cont linesearch -0.429E-11
 ZBRENT: interpolating
 opt :   7.7843  next Energy=   -65.926925 (dE=-0.247E-07)
 bond charge predicted
       N       E                     dE             d eps       ncg     rms          rms(c)
DAV:   1    -0.659269254114E+02   -0.63665E-10   -0.67272E-11  7376   0.542E-05    0.172E-04
RMM:   2    -0.659269254113E+02    0.40018E-10   -0.18421E-14   174   0.426E-05    0.172E-04
RMM:   3    -0.659269254112E+02    0.80036E-10   -0.58390E-14   168   0.430E-05    0.172E-04
RMM:   4    -0.659269254113E+02   -0.14552E-10    0.00000E+00   159   0.429E-05    0.172E-04
RMM:   5    -0.659269254113E+02   -0.38199E-10    0.00000E+00   162   0.429E-05
  12 F= -.65926925E+02 E0= -.65926925E+02  d E =-.245291E-07
 curvature:  -0.00 expect dE=-0.148E-11 dE for cont linesearch -0.130E-11
 ZBRENT: interpolating
 opt :   7.7896  next Energy=   -65.926925 (dE=-0.247E-07)
 bond charge predicted
       N       E                     dE             d eps       ncg     rms          rms(c)
DAV:   1    -0.659269254113E+02   -0.32742E-10    0.43619E-11  7144   0.447E-05    0.172E-04
RMM:   2    -0.659269254113E+02   -0.27285E-10    0.00000E+00   127   0.257E-05    0.172E-04
RMM:   3    -0.659269254115E+02   -0.13642E-09    0.00000E+00   126   0.268E-05    0.172E-04
RMM:   4    -0.659269254114E+02    0.29104E-10    0.00000E+00   127   0.268E-05    0.172E-04
RMM:   5    -0.659269254115E+02   -0.56389E-10    0.00000E+00   131   0.268E-05
  13 F= -.65926925E+02 E0= -.65926925E+02  d E =-.247146E-07
 curvature:  -0.00 expect dE=-0.392E-12 dE for cont linesearch -0.338E-12
 ZBRENT: interpolating
 opt :   7.7913  next Energy=   -65.926925 (dE=-0.247E-07)
 bond charge predicted
       N       E                     dE             d eps       ncg     rms          rms(c)
DAV:   1    -0.659269254116E+02   -0.13824E-09    0.69709E-11  7016   0.276E-05    0.172E-04
RMM:   2    -0.659269254113E+02    0.23465E-09    0.00000E+00   121   0.225E-05    0.172E-04
RMM:   3    -0.659269254111E+02    0.18008E-09    0.00000E+00   123   0.255E-05    0.172E-04
RMM:   4    -0.659269254110E+02    0.10550E-09    0.00000E+00   120   0.255E-05    0.172E-04
RMM:   5    -0.659269254110E+02    0.23647E-10    0.00000E+00   116   0.255E-05
  14 F= -.65926925E+02 E0= -.65926925E+02  d E =-.242526E-07
 curvature:  -0.00 expect dE=-0.210E-12 dE for cont linesearch -0.187E-12
 ZBRENT: interpolating
 opt :   7.7919  next Energy=   -65.926925 (dE=-0.247E-07)
 bond charge predicted
       N       E                     dE             d eps       ncg     rms          rms(c)
DAV:   1    -0.659269254111E+02   -0.96406E-10    0.80418E-11  6864   0.257E-05    0.172E-04
RMM:   2    -0.659269254113E+02   -0.17280E-09    0.00000E+00   109   0.151E-05    0.172E-04
RMM:   3    -0.659269254116E+02   -0.32378E-09    0.00000E+00   109   0.204E-05    0.172E-04
RMM:   4    -0.659269254117E+02   -0.18190E-10    0.00000E+00   115   0.204E-05    0.172E-04
RMM:   5    -0.659269254115E+02    0.13642E-09    0.00000E+00   119   0.204E-05
  15 F= -.65926925E+02 E0= -.65926925E+02  d E =-.247510E-07
 curvature:  -0.00 expect dE=-0.495E-13 dE for cont linesearch -0.444E-13
 ZBRENT: interpolating
 opt :   7.7921  next Energy=   -65.926925 (dE=-0.247E-07)
 bond charge predicted
       N       E                     dE             d eps       ncg     rms          rms(c)
DAV:   1    -0.659269254116E+02    0.87311E-10    0.84329E-11  6816   0.205E-05    0.172E-04
RMM:   2    -0.659269254114E+02    0.19645E-09    0.00000E+00    99   0.130E-05    0.172E-04
RMM:   3    -0.659269254111E+02    0.27831E-09    0.00000E+00   103   0.188E-05    0.172E-04
RMM:   4    -0.659269254110E+02    0.43656E-10    0.00000E+00   102   0.188E-05    0.172E-04
RMM:   5    -0.659269254110E+02    0.18190E-10    0.00000E+00   106   0.189E-05
  16 F= -.65926925E+02 E0= -.65926925E+02  d E =-.242635E-07
 curvature:  -0.00 expect dE=-0.139E-13 dE for cont linesearch -0.125E-13
 ZBRENT: interpolating
 opt :   7.7921  next Energy=   -65.926925 (dE=-0.247E-07)
 bond charge predicted
       N       E                     dE             d eps       ncg     rms          rms(c)
DAV:   1    -0.659269254111E+02   -0.54570E-11    0.86771E-11  6896   0.189E-05    0.172E-04
RMM:   2    -0.659269254113E+02   -0.23283E-09    0.00000E+00    96   0.101E-05    0.172E-04
RMM:   3    -0.659269254116E+02   -0.32196E-09    0.00000E+00    96   0.157E-05    0.172E-04
RMM:   4    -0.659269254116E+02    0.49113E-10    0.00000E+00   103   0.157E-05    0.172E-04
RMM:   5    -0.659269254115E+02    0.12733E-10    0.00000E+00   104   0.157E-05
  17 F= -.65926925E+02 E0= -.65926925E+02  d E =-.247801E-07
 curvature:  -0.00 expect dE=-0.365E-14 dE for cont linesearch -0.330E-14
 ZBRENT: interpolating
 opt :   7.7922  next Energy=   -65.926925 (dE=-0.247E-07)
 bond charge predicted
       N       E                     dE             d eps       ncg     rms          rms(c)
DAV:   1    -0.659269254116E+02   -0.40018E-10    0.87764E-11  6760   0.158E-05    0.172E-04
RMM:   2    -0.659269254114E+02    0.20009E-09    0.00000E+00    95   0.826E-06    0.172E-04
RMM:   3    -0.659269254111E+02    0.28922E-09    0.00000E+00    94   0.132E-05    0.172E-04
RMM:   4    -0.659269254111E+02    0.16371E-10    0.00000E+00   100   0.132E-05    0.172E-04
RMM:   5    -0.659269254111E+02   -0.32742E-10    0.00000E+00    94   0.132E-05
  18 F= -.65926925E+02 E0= -.65926925E+02  d E =-.243599E-07
 curvature:  -0.00 expect dE=-0.946E-15 dE for cont linesearch -0.859E-15
 ZBRENT: interpolating
 opt :   7.7922  next Energy=   -65.926925 (dE=-0.247E-07)
 bond charge predicted
       N       E                     dE             d eps       ncg     rms          rms(c)
DAV:   1    -0.659269254112E+02   -0.83674E-10    0.90476E-11  6768   0.132E-05    0.172E-04
RMM:   2    -0.659269254114E+02   -0.17644E-09    0.00000E+00    80   0.658E-06    0.172E-04
RMM:   3    -0.659269254115E+02   -0.17644E-09    0.00000E+00    84   0.107E-05    0.172E-04
RMM:   4    -0.659269254115E+02    0.76398E-10    0.00000E+00    84   0.107E-05    0.172E-04
RMM:   5    -0.659269254114E+02    0.14552E-10    0.00000E+00    91   0.107E-05
  19 F= -.65926925E+02 E0= -.65926925E+02  d E =-.246728E-07
 curvature:  -0.00 expect dE=-0.242E-15 dE for cont linesearch -0.220E-15
 ZBRENT:  can not reach accuracy
 opt :   0.0000  next Energy=     0.000000 (dE= 0.659E+02)
 bond charge predicted
       N       E                     dE             d eps       ncg     rms          rms(c)
DAV:   1    -0.659269253797E+02    0.31718E-07   -0.13585E-05 14656   0.979E-03    0.363E-04
RMM:   2    -0.659269253984E+02   -0.18637E-07   -0.18980E-07 13493   0.196E-03    0.203E-04
RMM:   3    -0.659269254013E+02   -0.29559E-08   -0.45112E-08  9577   0.105E-03    0.184E-04
RMM:   4    -0.659269254011E+02    0.24738E-09   -0.98212E-09  6688   0.753E-04    0.180E-04
RMM:   5    -0.659269254022E+02   -0.11023E-08   -0.39119E-09  6751   0.380E-04
  20 F= -.65926925E+02 E0= -.65926925E+02  d E =-.154178E-07
 curvature:   0.00 expect dE= 0.179-318 dE for cont linesearch  0.158-318
 -----------------------------------------------------------------------------
|                                                                             |
|     EEEEEEE  RRRRRR   RRRRRR   OOOOOOO  RRRRRR      ###     ###     ###     |
|     E        R     R  R     R  O     O  R     R     ###     ###     ###     |
|     E        R     R  R     R  O     O  R     R     ###     ###     ###     |
|     EEEEE    RRRRRR   RRRRRR   O     O  RRRRRR       #       #       #      |
|     E        R   R    R   R    O     O  R   R                               |
|     E        R    R   R    R   O     O  R    R      ###     ###     ###     |
|     EEEEEEE  R     R  R     R  OOOOOOO  R     R     ###     ###     ###     |
|                                                                             |
|     ZBRENT: fatal error in bracketing                                       |
|      please rerun with smaller EDIFF, or copy CONTCAR                       |
|      to POSCAR and continue                                                 |
|                                                                             |
|       ---->  I REFUSE TO CONTINUE WITH THIS SICK JOB ... BYE!!! <----       |
|                                                                             |
 -----------------------------------------------------------------------------

For us, there is only the trying. The rest is not our business. ~T.S.Eliot
