unknown system                          
           1
     0.000000    6.414415    6.414415
     6.414415    0.000000    6.414415
     6.414415    6.414415    0.000000
   Pb   Te
     8     8
Direct configuration=     1
   0.24859428  0.25144069  0.25029412
   0.75121883  0.24990423  0.24995270
   0.24974603  0.74957542  0.25054301
   0.75068377  0.74943573  0.24905031
   0.24984131  0.24986265  0.75087769
   0.74917214  0.24974251  0.75002643
   0.25020280  0.74840766  0.75028821
   0.74998577  0.75060848  0.74905670
   0.99985281  0.00089526  0.00045304
   0.49948385  0.99976920  0.00064355
   0.99953963  0.50038148  0.00034469
   0.50045390  0.50065763  0.99965620
   0.99992529  0.00041396  0.50016771
   0.50036506  0.99947814  0.50077689
   0.99957831  0.49947040  0.50076889
   0.49979694  0.49963581  0.50086376
Direct configuration=     2
   0.24887219  0.25126553  0.25027055
   0.75100539  0.24980354  0.25000647
   0.24973147  0.74958564  0.25047556
   0.75054207  0.74961046  0.24921458
   0.24992675  0.24975114  0.75072963
   0.74921841  0.24970198  0.75015427
   0.25026815  0.74865778  0.75025006
   0.74986501  0.75066248  0.74911412
   0.99986224  0.00070613  0.00044081
   0.49950122  0.99977580  0.00067973
   0.99961328  0.50032268  0.00032065
   0.50038856  0.50055555  0.99978741
   0.00000367  0.00036620  0.50017306
   0.50024123  0.99962412  0.50064722
   0.99958344  0.49954522  0.50075354
   0.49981765  0.49974501  0.50074623
Direct configuration=     3
   0.24965690  0.25077091  0.25020399
   0.75040270  0.24951921  0.25015830
   0.24969037  0.74961451  0.25028512
   0.75014194  0.75010385  0.24967842
   0.25016798  0.24943627  0.75031156
   0.74934904  0.24958751  0.75051526
   0.25045268  0.74936403  0.75014236
   0.74952400  0.75081498  0.74927626
   0.99988887  0.00017208  0.00040629
   0.49955028  0.99979443  0.00078187
   0.99982126  0.50015666  0.00025278
   0.50020407  0.50026730  0.00015793
   0.00022499  0.00023133  0.50018816
   0.49989157  0.00003632  0.50028104
   0.99959793  0.49975651  0.50071021
   0.49987614  0.50005334  0.50041435
Direct configuration=     4
   0.24968490  0.25072596  0.25012170
   0.75035921  0.24957679  0.25016459
   0.24966866  0.74961492  0.25033751
   0.75012370  0.75003849  0.24976832
   0.25013136  0.24954766  0.75026345
   0.74940829  0.24959651  0.75050174
   0.25038268  0.74944055  0.75015653
   0.74960739  0.75074611  0.74941591
   0.99990597  0.00009524  0.00036395
   0.49956679  0.99981907  0.00075826
   0.99983399  0.50014386  0.00021221
   0.50019381  0.50020468  0.00020658
   0.00022215  0.00018758  0.50021340
   0.49985559  0.00008984  0.50021616
   0.99959649  0.49980168  0.50070628
   0.49989974  0.50005030  0.50035731
Direct configuration=     5
   0.24974385  0.25063130  0.24994841
   0.75026762  0.24969805  0.25017785
   0.24962295  0.74961579  0.25044782
   0.75008530  0.74990086  0.24995763
   0.25005425  0.24978221  0.75016216
   0.74953305  0.24961546  0.75047326
   0.25023530  0.74960167  0.75018636
   0.74978298  0.75060110  0.74970997
   0.99994199 -0.00006655  0.00027480
   0.49960156  0.99987095  0.00070853
   0.99986081  0.50011693  0.00012679
   0.50017220  0.50007283  0.00030903
   0.00021617  0.00009544  0.50026655
   0.49977982  0.00020255  0.50007953
   0.99959346  0.49989677  0.50069800
   0.49994941  0.50004389  0.50023720
Direct configuration=     6
   0.24976364  0.25059953  0.24989025
   0.75023688  0.24973875  0.25018230
   0.24960761  0.74961608  0.25048485
   0.75007241  0.74985467  0.25002117
   0.25002837  0.24986093  0.75012816
   0.74957492  0.24962181  0.75046371
   0.25018583  0.74965575  0.75019638
   0.74984192  0.75055244  0.74980867
   0.99995408 -0.00012086  0.00024488
   0.49961323  0.99988836  0.00069184
   0.99986981  0.50010788  0.00009812
   0.50016494  0.50002857  0.00034342
   0.00021416  0.00006452  0.50028439
   0.49975439  0.00024037  0.50003367
   0.99959244  0.49992869  0.50069522
   0.49996609  0.50004173  0.50019688
Direct configuration=     7
   0.24978908  0.25054665  0.24990194
   0.75020728  0.24974976  0.25019187
   0.24961897  0.74965013  0.25047906
   0.75003695  0.74986122  0.25008792
   0.25001777  0.24987378  0.75012395
   0.74961018  0.24965274  0.75046679
   0.25018518  0.74971562  0.75019745
   0.74982629  0.75052463  0.74988231
   0.99996646 -0.00010390  0.00022343
   0.49962150  0.99990870  0.00063897
   0.99985602  0.50011766  0.00007820
   0.50015596  0.50002874  0.00031022
   0.00017361  0.00004830  0.50028177
   0.49979600  0.00019233  0.50004809
   0.99960535  0.49993166  0.50065178
   0.49997411  0.49998121  0.50020015
Direct configuration=     8
   0.24981810  0.25048635  0.24991527
   0.75017352  0.24976232  0.25020278
   0.24963193  0.74968895  0.25047245
   0.74999652  0.74986869  0.25016404
   0.25000567  0.24988844  0.75011915
   0.74965040  0.24968801  0.75047031
   0.25018444  0.74978389  0.75019867
   0.74980847  0.75049292  0.74996630
   0.99998057 -0.00008456  0.00019897
   0.49963093  0.99993189  0.00057869
   0.99984030  0.50012881  0.00005548
   0.50014572  0.50002893  0.00027236
   0.00012737  0.00002981  0.50027879
   0.49984344  0.00013756  0.50006452
   0.99962007  0.49993504  0.50060225
   0.49998327  0.49991220  0.50020387
Direct configuration=     9
   0.24987614  0.25036575  0.24994193
   0.75010601  0.24978743  0.25022462
   0.24965784  0.74976660  0.25045924
   0.74991565  0.74988364  0.25031628
   0.24998148  0.24991775  0.75010955
   0.74973082  0.24975854  0.75047734
   0.25018296  0.74992042  0.75020112
   0.74977283  0.75042950  0.75013426
   0.00000880 -0.00004589  0.00015005
   0.49964978  0.99997827  0.00045812
   0.99980886  0.50015112  0.00001005
   0.50012524  0.50002931  0.00019665
   0.00003489 -0.00000717  0.50027281
   0.49993833  0.00002800  0.50009738
   0.99964952  0.49994180  0.50050318
   0.50000158  0.49977418  0.50021131
Direct configuration=    10
   0.24984610  0.25042818  0.24992813
   0.75014096  0.24977443  0.25021331
   0.24964442  0.74972641  0.25046608
   0.74995751  0.74987590  0.25023748
   0.24999400  0.24990258  0.75011452
   0.74968919  0.24972203  0.75047370
   0.25018372  0.74984975  0.75019985
   0.74979128  0.75046233  0.75004732
  -0.00000581 -0.00006591  0.00017537
   0.49964002  0.99995426  0.00052053
   0.99982513  0.50013957  0.00003356
   0.50013584  0.50002911  0.00023584
   0.00008276  0.00001197  0.50027590
   0.49988921  0.00008471  0.50008037
   0.99963428  0.49993830  0.50055446
   0.49999210  0.49984563  0.50020746
Direct configuration=    11
   0.24982831  0.25037812  0.24999250
   0.75013691  0.24981754  0.25020578
   0.24968480  0.74976964  0.25045999
   0.74993512  0.74988143  0.25025607
   0.24995641  0.24992516  0.75015317
   0.74972717  0.24976802  0.75045530
   0.25016131  0.74987237  0.75019829
   0.74979847  0.75039846  0.75010364
  -0.00001444 -0.00008921  0.00019059
   0.49966638  0.99995286  0.00046944
   0.99985914  0.50010772  0.00005879
   0.50008412  0.50002594  0.00021757
   0.00006346  0.00001409  0.50023868
   0.49990025  0.00006338  0.50008253
   0.99967172  0.49993931  0.50047268
   0.49998161  0.49985439  0.50020888
Direct configuration=    12
   0.24980844  0.25032225  0.25006435
   0.75013239  0.24986567  0.25019737
   0.24972987  0.74981790  0.25045319
   0.74991012  0.74988761  0.25027682
   0.24991445  0.24995037  0.75019632
   0.74976956  0.24981935  0.75043475
   0.25013629  0.74989762  0.75019654
   0.74980650  0.75032716  0.75016651
  -0.00002406 -0.00011521  0.00020759
   0.49969580  0.99995130  0.00041242
   0.99989709  0.50007217  0.00008695
   0.50002640  0.50002241  0.00019717
   0.00004191  0.00001646  0.50019713
   0.49991256  0.00003957  0.50008494
   0.99971351  0.49994044  0.50038139
   0.49996989  0.49986418  0.50021046
Direct configuration=    13
   0.24976872  0.25021050  0.25020805
   0.75012335  0.24996191  0.25018055
   0.24982001  0.74991441  0.25043959
   0.74986014  0.74989997  0.25031832
   0.24983053  0.25000079  0.75028261
   0.74985434  0.24992202  0.75039366
   0.25008625  0.74994812  0.75019305
   0.74982256  0.75018458  0.75029225
  -0.00004331 -0.00016722  0.00024158
   0.49975464  0.99994818  0.00029838
   0.99997300  0.50000107  0.00014326
   0.49991094  0.50001533  0.00015638
  -0.00000119  0.00002118  0.50011403
   0.49993720 -0.00000805  0.50008975
   0.99979710  0.49994270  0.50019882
   0.49994645  0.49988375  0.50021362
Direct configuration=    14
   0.24979697  0.25028995  0.25010588
   0.75012978  0.24989348  0.25019251
   0.24975592  0.74984579  0.25044926
   0.74989568  0.74989118  0.25028881
   0.24989020  0.24996494  0.75022126
   0.74979406  0.24984902  0.75042288
   0.25012183  0.74991222  0.75019553
   0.74981114  0.75028596  0.75020285
  -0.00002963 -0.00013024  0.00021741
   0.49971280  0.99995040  0.00037946
   0.99991903  0.50005163  0.00010322
   0.49999303  0.50002036  0.00018538
   0.00002945  0.00001782  0.50017311
   0.49991968  0.00002581  0.50008633
   0.99973767  0.49994109  0.50032863
   0.49996311  0.49986983  0.50021137
Direct configuration=    15
   0.24982527  0.25021579  0.25017903
   0.75008889  0.24992773  0.25018194
   0.24980895  0.74987168  0.25041483
   0.74986857  0.74993825  0.25026733
   0.24987249  0.24995095  0.75024457
   0.74981852  0.24987166  0.75041246
   0.25009268  0.74993963  0.75018114
   0.74981879  0.75022054  0.75020490
  -0.00005288 -0.00013023  0.00022529
   0.49976720  0.99995382  0.00031867
   0.99993073  0.50003316  0.00011021
   0.49997820  0.50000376  0.00019482
  -0.00001458  0.00000584  0.50018982
   0.49992229  0.00004001  0.50010415
   0.99976810  0.49995570  0.50031389
   0.49994751  0.49988094  0.50022083
Direct configuration=    16
   0.24983316  0.25019511  0.25019944
   0.75007748  0.24993729  0.25017899
   0.24982374  0.74987891  0.25040523
   0.74986101  0.74995138  0.25026134
   0.24986756  0.24994705  0.75025107
   0.74982534  0.24987798  0.75040956
   0.25008456  0.74994727  0.75017713
   0.74982092  0.75020229  0.75020547
  -0.00005937 -0.00013023  0.00022749
   0.49978237  0.99995478  0.00030172
   0.99993399  0.50002801  0.00011217
   0.49997406  0.49999912  0.00019746
  -0.00002686  0.00000249  0.50019448
   0.49992302  0.00004398  0.50010912
   0.99977659  0.49995977  0.50030978
   0.49994316  0.49988404  0.50022347
Direct configuration=    17
   0.24984894  0.25015374  0.25024024
   0.75005468  0.24995640  0.25017309
   0.24985331  0.74989335  0.25038602
   0.74984589  0.74997764  0.25024937
   0.24985768  0.24993924  0.75026407
   0.74983898  0.24989061  0.75040374
   0.25006830  0.74996256  0.75016910
   0.74982518  0.75016580  0.75020662
  -0.00007234 -0.00013022  0.00023188
   0.49981271  0.99995669  0.00026781
   0.99994052  0.50001771  0.00011607
   0.49996579  0.49998986  0.00020272
  -0.00005141 -0.00000419  0.50020380
   0.49992447  0.00005190  0.50011905
   0.99979357  0.49996792  0.50030155
   0.49993445  0.49989024  0.50022875
Direct configuration=    18
   0.24984117  0.25017411  0.25022015
   0.75006591  0.24994699  0.25017600
   0.24983875  0.74988624  0.25039548
   0.74985334  0.74996471  0.25025527
   0.24986254  0.24994309  0.75025767
   0.74983226  0.24988439  0.75040661
   0.25007630  0.74995503  0.75017306
   0.74982308  0.75018378  0.75020606
  -0.00006595 -0.00013023  0.00022972
   0.49979777  0.99995575  0.00028451
   0.99993730  0.50002278  0.00011415
   0.49996986  0.49999442  0.00020013
  -0.00003932 -0.00000090  0.50019921
   0.49992376  0.00004800  0.50011416
   0.99978521  0.49996390  0.50030560
   0.49993874  0.49988719  0.50022615
Direct configuration=    19
   0.24984547  0.25016285  0.25023125
   0.75005970  0.24995219  0.25017439
   0.24984680  0.74989017  0.25039025
   0.74984922  0.74997185  0.25025200
   0.24985986  0.24994096  0.75026121
   0.74983597  0.24988783  0.75040502
   0.25007188  0.74995919  0.75017087
   0.74982424  0.75017384  0.75020637
  -0.00006948 -0.00013023  0.00023091
   0.49980603  0.99995627  0.00027528
   0.99993908  0.50001998  0.00011521
   0.49996761  0.49999190  0.00020156
  -0.00004600 -0.00000272  0.50020175
   0.49992415  0.00005016  0.50011686
   0.99978983  0.49996612  0.50030336
   0.49993637  0.49988887  0.50022759
Direct configuration=    20
   0.24985201  0.25011279  0.25024435
   0.75003454  0.24998157  0.25016526
   0.24987141  0.74990550  0.25036203
   0.74985188  0.74996785  0.25023542
   0.24984600  0.24995448  0.75026459
   0.74985947  0.24990587  0.75036380
   0.25002800  0.74996659  0.75016729
   0.74985970  0.75010743  0.75021159
  -0.00007392 -0.00011199  0.00023800
   0.49982765  0.99997753  0.00026558
   0.99993164  0.50002740  0.00013868
   0.49994200  0.49998688  0.00022172
  -0.00006759 -0.00001181  0.50022413
   0.49992944  0.00003721  0.50014241
   0.99982018  0.49998098  0.50028022
   0.49992832  0.49989097  0.50023883
Direct configuration=    21
   0.24985308  0.25010464  0.25024648
   0.75003044  0.24998635  0.25016377
   0.24987542  0.74990799  0.25035744
   0.74985232  0.74996719  0.25023272
   0.24984375  0.24995668  0.75026514
   0.74986329  0.24990881  0.75035709
   0.25002086  0.74996779  0.75016671
   0.74986546  0.75009662  0.75021244
  -0.00007464 -0.00010902  0.00023915
   0.49983117  0.99998099  0.00026400
   0.99993043  0.50002861  0.00014250
   0.49993783  0.49998606  0.00022500
  -0.00007110 -0.00001329  0.50022777
   0.49993030  0.00003511  0.50014657
   0.99982512  0.49998340  0.50027646
   0.49992701  0.49989131  0.50024066
Direct configuration=    22
   0.24985521  0.25008835  0.25025074
   0.75002225  0.24999592  0.25016080
   0.24988343  0.74991298  0.25034826
   0.74985318  0.74996589  0.25022733
   0.24983924  0.24996108  0.75026624
   0.74987094  0.24991468  0.75034367
   0.25000657  0.74997020  0.75016555
   0.74987700  0.75007501  0.75021414
  -0.00007609 -0.00010309  0.00024145
   0.49983820  0.99998791  0.00026084
   0.99992801  0.50003103  0.00015014
   0.49992949  0.49998442  0.00023156
  -0.00007813 -0.00001625  0.50023506
   0.49993203  0.00003089  0.50015488
   0.99983499  0.49998824  0.50026892
   0.49992439  0.49989199  0.50024432
Direct configuration=    23
   0.24987473  0.25005058  0.25023749
   0.74999462  0.24998498  0.25016698
   0.24988981  0.74992960  0.25031121
   0.74985200  0.74996733  0.25023844
   0.24985426  0.24995415  0.75024784
   0.74988357  0.24992874  0.75031658
   0.24999743  0.74998326  0.75016624
   0.74987060  0.75005212  0.75022247
  -0.00007429 -0.00008778  0.00025009
   0.49984436  0.99999841  0.00026336
   0.99992527  0.50002356  0.00018264
   0.49990948  0.49998946  0.00023902
  -0.00008415 -0.00001198  0.50023787
   0.49992901  0.00001398  0.50018082
   0.99985039  0.49999520  0.50025228
   0.49992364  0.49990761  0.50025055
Direct configuration=    24
   0.24987514  0.25004979  0.25023722
   0.74999404  0.24998475  0.25016711
   0.24988994  0.74992995  0.25031043
   0.74985198  0.74996736  0.25023868
   0.24985458  0.24995401  0.75024745
   0.74988383  0.24992904  0.75031601
   0.24999724  0.74998354  0.75016625
   0.74987047  0.75005164  0.75022265
  -0.00007425 -0.00008745  0.00025027
   0.49984449  0.99999863  0.00026341
   0.99992521  0.50002340  0.00018332
   0.49990906  0.49998956  0.00023917
  -0.00008428 -0.00001189  0.50023793
   0.49992895  0.00001362  0.50018136
   0.99985071  0.49999535  0.50025193
   0.49992362  0.49990794  0.50025068
Direct configuration=    25
   0.24987595  0.25004821  0.25023666
   0.74999288  0.24998429  0.25016737
   0.24989021  0.74993064  0.25030888
   0.74985193  0.74996742  0.25023914
   0.24985521  0.24995372  0.75024668
   0.74988436  0.24992963  0.75031488
   0.24999686  0.74998408  0.75016628
   0.74987020  0.75005069  0.75022300
  -0.00007418 -0.00008681  0.00025063
   0.49984474  0.99999907  0.00026352
   0.99992509  0.50002309  0.00018469
   0.49990823  0.49998977  0.00023948
  -0.00008453 -0.00001171  0.50023805
   0.49992882  0.00001291  0.50018245
   0.99985136  0.49999564  0.50025124
   0.49992359  0.49990860  0.50025094
Direct configuration=    26
   0.24987759  0.25004505  0.25023555
   0.74999057  0.24998338  0.25016789
   0.24989074  0.74993204  0.25030578
   0.74985183  0.74996754  0.25024007
   0.24985646  0.24995314  0.75024514
   0.74988542  0.24993080  0.75031261
   0.24999609  0.74998518  0.75016634
   0.74986966  0.75004877  0.75022370
  -0.00007403 -0.00008553  0.00025135
   0.49984526  0.99999995  0.00026373
   0.99992486  0.50002246  0.00018741
   0.49990655  0.49999019  0.00024011
  -0.00008504 -0.00001135  0.50023829
   0.49992857  0.00001150  0.50018462
   0.99985265  0.49999622  0.50024984
   0.49992353  0.49990990  0.50025147
Direct configuration=    27
   0.24987780  0.25002756  0.25022543
   0.74997577  0.24998032  0.25017662
   0.24989249  0.74994350  0.25028741
   0.74986342  0.74995959  0.25024180
   0.24986381  0.24996436  0.75023564
   0.74989555  0.24994348  0.75028602
   0.24997612  0.74998277  0.75017642
   0.74987795  0.75002791  0.75023368
  -0.00007897 -0.00007124  0.00025346
   0.49985725  0.99999538  0.00025609
   0.99992243  0.50000796  0.00020375
   0.49990767  0.49999252  0.00023865
  -0.00009106 -0.00000742  0.50023824
   0.49992169  0.00000795  0.50020301
   0.99985774  0.49999526  0.50025478
   0.49992106  0.49992935  0.50025289
Direct configuration=    28
   0.24987779  0.25002797  0.25022567
   0.74997612  0.24998039  0.25017642
   0.24989245  0.74994323  0.25028784
   0.74986315  0.74995978  0.25024176
   0.24986364  0.24996410  0.75023586
   0.74989532  0.24994318  0.75028664
   0.24997658  0.74998282  0.75017618
   0.74987776  0.75002840  0.75023344
  -0.00007885 -0.00007158  0.00025341
   0.49985697  0.99999548  0.00025627
   0.99992249  0.50000830  0.00020337
   0.49990764  0.49999246  0.00023869
  -0.00009092 -0.00000751  0.50023824
   0.49992186  0.00000803  0.50020258
   0.99985762  0.49999529  0.50025466
   0.49992112  0.49992889  0.50025285
Direct configuration=    29
   0.24987779  0.25002760  0.25022546
   0.74997580  0.24998032  0.25017660
   0.24989249  0.74994348  0.25028745
   0.74986339  0.74995961  0.25024180
   0.24986379  0.24996434  0.75023566
   0.74989553  0.24994345  0.75028608
   0.24997616  0.74998277  0.75017640
   0.74987793  0.75002796  0.75023366
  -0.00007896 -0.00007127  0.00025346
   0.49985722  0.99999539  0.00025611
   0.99992244  0.50000799  0.00020372
   0.49990767  0.49999251  0.00023866
  -0.00009105 -0.00000743  0.50023824
   0.49992171  0.00000795  0.50020297
   0.99985773  0.49999527  0.50025477
   0.49992107  0.49992931  0.50025288
Direct configuration=    30
   0.24987780  0.25002757  0.25022544
   0.74997578  0.24998032  0.25017662
   0.24989249  0.74994350  0.25028742
   0.74986341  0.74995960  0.25024180
   0.24986380  0.24996436  0.75023564
   0.74989555  0.24994347  0.75028603
   0.24997613  0.74998277  0.75017641
   0.74987795  0.75002792  0.75023367
  -0.00007897 -0.00007125  0.00025346
   0.49985724  0.99999538  0.00025610
   0.99992243  0.50000797  0.00020374
   0.49990767  0.49999252  0.00023865
  -0.00009106 -0.00000742  0.50023824
   0.49992170  0.00000795  0.50020300
   0.99985774  0.49999527  0.50025477
   0.49992106  0.49992934  0.50025288
Direct configuration=    31
   0.24987780  0.25002756  0.25022543
   0.74997577  0.24998032  0.25017662
   0.24989249  0.74994350  0.25028741
   0.74986342  0.74995959  0.25024180
   0.24986381  0.24996436  0.75023564
   0.74989555  0.24994347  0.75028602
   0.24997612  0.74998277  0.75017642
   0.74987795  0.75002791  0.75023368
  -0.00007897 -0.00007124  0.00025346
   0.49985725  0.99999538  0.00025609
   0.99992243  0.50000796  0.00020375
   0.49990767  0.49999252  0.00023865
  -0.00009106 -0.00000742  0.50023824
   0.49992170  0.00000795  0.50020301
   0.99985774  0.49999527  0.50025478
   0.49992106  0.49992935  0.50025289
Direct configuration=    32
   0.24987780  0.25002756  0.25022543
   0.74997577  0.24998032  0.25017662
   0.24989249  0.74994350  0.25028741
   0.74986342  0.74995959  0.25024180
   0.24986381  0.24996436  0.75023564
   0.74989555  0.24994348  0.75028602
   0.24997612  0.74998277  0.75017642
   0.74987795  0.75002791  0.75023368
  -0.00007897 -0.00007124  0.00025346
   0.49985725  0.99999538  0.00025609
   0.99992243  0.50000796  0.00020375
   0.49990767  0.49999252  0.00023865
  -0.00009106 -0.00000742  0.50023824
   0.49992169  0.00000795  0.50020301
   0.99985774  0.49999526  0.50025478
   0.49992106  0.49992935  0.50025289
Direct configuration=    33
   0.24987780  0.25002756  0.25022543
   0.74997577  0.24998032  0.25017662
   0.24989249  0.74994350  0.25028741
   0.74986342  0.74995959  0.25024180
   0.24986381  0.24996436  0.75023564
   0.74989555  0.24994348  0.75028602
   0.24997612  0.74998277  0.75017642
   0.74987795  0.75002791  0.75023368
  -0.00007897 -0.00007124  0.00025346
   0.49985725  0.99999538  0.00025609
   0.99992243  0.50000796  0.00020375
   0.49990767  0.49999252  0.00023865
  -0.00009106 -0.00000742  0.50023824
   0.49992169  0.00000795  0.50020301
   0.99985774  0.49999526  0.50025478
   0.49992106  0.49992935  0.50025289
Direct configuration=    34
   0.24987780  0.25002756  0.25022543
   0.74997577  0.24998032  0.25017662
   0.24989249  0.74994350  0.25028741
   0.74986342  0.74995959  0.25024180
   0.24986381  0.24996436  0.75023564
   0.74989555  0.24994348  0.75028602
   0.24997612  0.74998277  0.75017642
   0.74987795  0.75002791  0.75023368
  -0.00007897 -0.00007124  0.00025346
   0.49985725  0.99999538  0.00025609
   0.99992243  0.50000796  0.00020375
   0.49990767  0.49999252  0.00023865
  -0.00009106 -0.00000742  0.50023824
   0.49992169  0.00000795  0.50020301
   0.99985774  0.49999526  0.50025478
   0.49992106  0.49992935  0.50025289
Direct configuration=    35
   0.24987780  0.25002756  0.25022543
   0.74997577  0.24998032  0.25017662
   0.24989249  0.74994350  0.25028741
   0.74986342  0.74995959  0.25024180
   0.24986381  0.24996436  0.75023564
   0.74989555  0.24994348  0.75028602
   0.24997612  0.74998277  0.75017642
   0.74987795  0.75002791  0.75023368
  -0.00007897 -0.00007124  0.00025346
   0.49985725  0.99999538  0.00025609
   0.99992243  0.50000796  0.00020375
   0.49990767  0.49999252  0.00023865
  -0.00009106 -0.00000742  0.50023824
   0.49992169  0.00000795  0.50020301
   0.99985774  0.49999526  0.50025478
   0.49992106  0.49992935  0.50025289
Direct configuration=    36
   0.24987780  0.25002756  0.25022543
   0.74997577  0.24998032  0.25017662
   0.24989249  0.74994350  0.25028741
   0.74986342  0.74995959  0.25024180
   0.24986381  0.24996436  0.75023564
   0.74989555  0.24994348  0.75028602
   0.24997612  0.74998277  0.75017642
   0.74987795  0.75002791  0.75023368
  -0.00007897 -0.00007124  0.00025346
   0.49985725  0.99999538  0.00025609
   0.99992243  0.50000796  0.00020375
   0.49990767  0.49999252  0.00023865
  -0.00009106 -0.00000742  0.50023824
   0.49992169  0.00000795  0.50020301
   0.99985774  0.49999526  0.50025478
   0.49992106  0.49992935  0.50025289
