 vasp.6.3.0 20Jan22 (build Feb 21 2022 11:18:28) complex                         
 executed on       CrayXC_GCC_OMP date 2023.09.17  21:58:09
 running  128 mpi-ranks, with    1 threads/rank
 distrk:  each k-point on  128 cores,    1 groups
 distr:  one band on NCORE=  16 cores,    8 groups


--------------------------------------------------------------------------------------------------------


 INCAR:
   NWRITE = 2        (Medium-level output)
   ISTART = 1        (Read existing wavefunction
   INIWAV = 1        (Random initial wavefunction
   ICORELEVEL = 1    (Print core levels)
   LCHARG = .FALSE.
   LWAVE = .FALSE.
   LPLANE = TRUE (Real space distribution
   NCORE = 16     (how many cores share the work on an individual orbital)
   PREC = Accurate  (Precision level)
   LREAL = .FALSE. (Accurate forces
   ALGO = FAST      (SCF minimisation algorithm
   ENMAX = 500.00 eV (Plane-wave cutoff)
   NELM = 500     (Max SCF steps)
   NELMIN = 3        (Min SCF steps)
   EDIFF = 1E-09     (SCF energy convergence
   ISPIN = 1        (Closed shell DFT)
   GGA = PS     (PBEsol exchange-correlation)
   ADDGRID = TRUE  (Increase grid
   BMIX = 1
   KBLOCK = 100
   MAXMIX = 20
   EDIFFG = -1E-08    (Ionic convergence
   NSW = 10        (Max ionic steps
   NBLOCK = 1     (Update XDATCAR, DOSCAR every NBLOCK steps)
   IBRION = 2     (Algorithm: 0-MD
   ISIF = 2     (Stress/relaxation: 2-Ions, 3-Shape/Ions/V, 7-Vol)
   ISYM = 2     (Symmetry: 0\=none
   2 = GGA
   3 = hybrids)
   ISMEAR = 0     (Gaussian smearing
   SIGMA = 0.01  (Smearing value in eV
   LORBIT = 11     (PAW radii for projected DOS)
   NEDOS = 1000    (DOSCAR points)
   LMAXMIX = 4       (Mixing cut-off
   ML_ISTART = 0
   ML_LMLFF = TRUE

 POTCAR:    PAW_PBE Pb_d 06Sep2000                
 POTCAR:    PAW_PBE Te 08Apr2002                  
 POTCAR:    PAW_PBE Pb_d 06Sep2000                
   VRHFIN =Pb:                                                                                      
   LEXCH  = PE                                                                                      
   EATOM  =  1661.6185 eV,  122.1255 Ry                                                             
                                                                                                    
   TITEL  = PAW_PBE Pb_d 06Sep2000                                                                  
   LULTRA =        F    use ultrasoft PP ?                                                          
   IUNSCR =        1    unscreen: 0-lin 1-nonlin 2-no                                               
   RPACOR =    2.200    partial core radius                                                         
   POMASS =  207.200; ZVAL   =   14.000    mass and valenz                                          
   RCORE  =    2.500    outmost cutoff radius                                                       
   RWIGS  =    3.260; RWIGS  =    1.725    wigner-seitz radius (au A)                               
   ENMAX  =  237.835; ENMIN  =  178.376 eV                                                          
   ICORE  =        3    local potential                                                             
   LCOR   =        T    correct aug charges                                                         
   LPAW   =        T    paw PP                                                                      
   EAUG   =  391.914                                                                                
   DEXC   =    0.000                                                                                
   RMAX   =    2.565    core radius for proj-oper                                                   
   RAUG   =    1.300    factor for augmentation sphere                                              
   RDEP   =    2.643    radius for radial grids                                                     
   RDEPT  =    2.092    core radius for aug-charge                                                  
                                                                                                    
   Atomic configuration                                                                             
   16 entries                                                                                       
     n  l   j            E        occ.                                                              
     1  0  0.50    -88091.8466   2.0000                                                             
     2  0  0.50    -15753.4197   2.0000                                                             
     2  1  1.50    -13508.1797   6.0000                                                             
     3  0  0.50     -3781.7194   2.0000                                                             
     3  1  1.50     -3138.2529   6.0000                                                             
     3  2  2.50     -2483.2977  10.0000                                                             
     4  0  0.50      -856.2895   2.0000                                                             
     4  1  1.50      -645.4942   6.0000                                                             
     4  2  2.50      -401.8768  10.0000                                                             
     4  3  3.50      -132.9059  14.0000                                                             
     5  0  0.50      -144.0950   2.0000                                                             
     5  1  1.50       -85.7879   6.0000                                                             
     5  2  2.50       -21.1769  10.0000                                                             
     6  0  0.50       -12.0372   2.0000                                                             
     6  1  1.50        -3.4971   2.0000                                                             
     5  3  2.50        -2.7212   0.0000                                                             
   Description                                                                                      
     l       E           TYP  RCUT    TYP  RCUT                                                     
     2    -21.1768523     23  2.500                                                                 
     2      1.3605826     23  2.500                                                                 
     0    -12.0371562     23  2.500                                                                 
     0     13.6058260     23  2.500                                                                 
     1     -3.4971339     23  2.500                                                                 
     1     13.6058260     23  2.500                                                                 
     3     -1.3605826      7  2.500                                                                 
  local pseudopotential read in
  partial core-charges read in
  partial kinetic energy density read in
  atomic valenz-charges read in
  non local Contribution for L=           2  read in
    real space projection operators read in
  non local Contribution for L=           2  read in
    real space projection operators read in
  non local Contribution for L=           0  read in
    real space projection operators read in
  non local Contribution for L=           0  read in
    real space projection operators read in
  non local Contribution for L=           1  read in
    real space projection operators read in
  non local Contribution for L=           1  read in
    real space projection operators read in
    PAW grid and wavefunctions read in

   number of l-projection  operators is LMAX  =           6
   number of lm-projection operators is LMMAX =          18

 POTCAR:    PAW_PBE Te 08Apr2002                  
   VRHFIN =Te: s2p4                                                                                 
   LEXCH  = PE                                                                                      
   EATOM  =   223.2721 eV,   16.4100 Ry                                                             
                                                                                                    
   TITEL  = PAW_PBE Te 08Apr2002                                                                    
   LULTRA =        F    use ultrasoft PP ?                                                          
   IUNSCR =        1    unscreen: 0-lin 1-nonlin 2-no                                               
   RPACOR =    2.200    partial core radius                                                         
   POMASS =  127.600; ZVAL   =    6.000    mass and valenz                                          
   RCORE  =    2.300    outmost cutoff radius                                                       
   RWIGS  =    2.900; RWIGS  =    1.535    wigner-seitz radius (au A)                               
   ENMAX  =  174.982; ENMIN  =  131.236 eV                                                          
   ICORE  =        3    local potential                                                             
   LCOR   =        T    correct aug charges                                                         
   LPAW   =        T    paw PP                                                                      
   EAUG   =  368.792                                                                                
   DEXC   =    0.000                                                                                
   RMAX   =    2.345    core radius for proj-oper                                                   
   RAUG   =    1.300    factor for augmentation sphere                                              
   RDEP   =    2.397    radius for radial grids                                                     
   RDEPT  =    2.174    core radius for aug-charge                                                  
                                                                                                    
   Atomic configuration                                                                             
   13 entries                                                                                       
     n  l   j            E        occ.                                                              
     1  0  0.50    -31621.2075   2.0000                                                             
     2  0  0.50     -4848.7941   2.0000                                                             
     2  1  1.50     -4352.1960   6.0000                                                             
     3  0  0.50      -964.9612   2.0000                                                             
     3  1  1.50      -803.6179   6.0000                                                             
     3  2  2.50      -559.8710  10.0000                                                             
     4  0  0.50      -164.3522   2.0000                                                             
     4  1  1.50      -114.3756   6.0000                                                             
     4  2  2.50       -41.6483  10.0000                                                             
     5  0  0.50       -15.1072   2.0000                                                             
     5  1  0.50        -5.9526   4.0000                                                             
     5  2  1.50        -5.4423   0.0000                                                             
     4  3  2.50        -5.4423   0.0000                                                             
   Description                                                                                      
     l       E           TYP  RCUT    TYP  RCUT                                                     
     0    -15.1072389     23  2.300                                                                 
     0    -16.4678215     23  2.300                                                                 
     1     -5.9526306     23  2.300                                                                 
     1     -2.4873968     23  2.300                                                                 
     2     -5.4423304     23  2.300                                                                 
     3     -1.3605826     23  2.300                                                                 
  local pseudopotential read in
  partial core-charges read in
  partial kinetic energy density read in
  atomic valenz-charges read in
  non local Contribution for L=           0  read in
    real space projection operators read in
  non local Contribution for L=           0  read in
    real space projection operators read in
  non local Contribution for L=           1  read in
    real space projection operators read in
  non local Contribution for L=           1  read in
    real space projection operators read in
  non local Contribution for L=           2  read in
    real space projection operators read in
    PAW grid and wavefunctions read in

   number of l-projection  operators is LMAX  =           5
   number of lm-projection operators is LMMAX =          13

 -----------------------------------------------------------------------------
|                                                                             |
|               ----> ADVICE to this user running VASP <----                  |
|                                                                             |
|     You enforced a specific xc type in the INCAR file but a different       |
|     type was found in the POTCAR file.                                      |
|     I HOPE YOU KNOW WHAT YOU ARE DOING!                                     |
|                                                                             |
 -----------------------------------------------------------------------------

  PAW_PBE Pb_d 06Sep2000                :
 energy of atom  1       EATOM=-1661.6185
 kinetic energy error for atom=    0.0047 (will be added to EATOM!!)
  PAW_PBE Te 08Apr2002                  :
 energy of atom  2       EATOM= -223.2721
 kinetic energy error for atom=    0.0007 (will be added to EATOM!!)


 POSCAR: Pb Te
  positions in direct lattice
  velocities in cartesian coordinates
 exchange correlation table for  LEXCH =       14
   RHO(1)=    0.500       N(1)  =     2000
   RHO(2)=  100.500       N(2)  =     4000



--------------------------------------------------------------------------------------------------------


 ion  position               nearest neighbor table
   1  0.249  0.251  0.250-  15 3.24  12 3.24  11 3.24  14 3.24  13 3.24  10 3.24
   2  0.751  0.250  0.250-  13 3.24  16 3.24  11 3.24  14 3.24   9 3.24  12 3.24
   3  0.249  0.749  0.251-  15 3.24   9 3.24  13 3.24  12 3.24  16 3.24  10 3.24
   4  0.750  0.750  0.250-  15 3.24   9 3.24  11 3.24  14 3.24  16 3.24  10 3.24
   5  0.250  0.250  0.750-  10 3.24  16 3.24  11 3.24   9 3.24  14 3.24  15 3.24
   6  0.749  0.249  0.751-  10 3.24  16 3.24  12 3.24  13 3.24   9 3.24  15 3.24
   7  0.251  0.750  0.750-  12 3.24  11 3.24   9 3.24  14 3.24  16 3.24  13 3.24
   8  0.750  0.751  0.750-  14 3.24  13 3.24  10 3.24  12 3.24  11 3.24  15 3.24
   9  0.000  1.000  0.000-   3 3.24   4 3.24   7 3.24   5 3.24   2 3.24   6 3.24
  10  0.499  1.000  0.001-   6 3.24   5 3.24   8 3.24   4 3.24   3 3.24   1 3.24
  11  1.000  0.500  1.000-   1 3.24   5 3.24   7 3.24   2 3.24   4 3.24   8 3.24
  12  0.501  0.500  0.000-   7 3.24   1 3.24   6 3.24   3 3.24   8 3.24   2 3.24
  13  0.001  1.000  0.500-   8 3.24   2 3.24   3 3.24   6 3.24   1 3.24   7 3.24
  14  0.500  0.000  0.500-   8 3.24   7 3.24   2 3.24   4 3.24   5 3.24   1 3.24
  15  0.999  0.500  0.501-   3 3.24   1 3.24   4 3.24   8 3.24   5 3.24   6 3.24
  16  0.500  0.500  0.500-   6 3.24   2 3.24   5 3.24   3 3.24   4 3.24   7 3.24

  LATTYP: Found a base centered monoclinic cell.
 ALAT       =    12.9571624175
 B/A-ratio  =     1.0000375891
 C/A-ratio  =     1.5811711474
 COS(beta)  =    -0.9486721708
  
  Lattice vectors:
  
 A1 = (  -0.0000172022,  -6.4788417597,  -6.4785982313)
 A2 = (  -0.0001520929,   6.4788077056,  -6.4785641850)
 A3 = (   6.4796514372,  -0.0000163564,  19.4358282497)


Analysis of symmetry for initial positions (statically):
=====================================================================
 Subroutine PRICEL returns:
 Original cell was already a primitive cell.
 

 Routine SETGRP: Setting up the symmetry group for a 
 base centered monoclinic supercell.


 Subroutine GETGRP returns: Found  1 space group operations
 (whereof  1 operations were pure point group operations)
 out of a pool of  4 trial point group operations.


The static configuration has the point symmetry C_1 .


Analysis of symmetry for dynamics (positions and initial velocities):
=====================================================================
 Subroutine PRICEL returns:
 Original cell was already a primitive cell.
 

 Routine SETGRP: Setting up the symmetry group for a 
 base centered monoclinic supercell.


 Subroutine GETGRP returns: Found  1 space group operations
 (whereof  1 operations were pure point group operations)
 out of a pool of  4 trial point group operations.


The dynamic configuration has the point symmetry C_1 .


 Subroutine INISYM returns: Found  1 space group operations
 (whereof  1 operations are pure point group operations),
 and found     1 'primitive' translations


----------------------------------------------------------------------------------------

                                     Primitive cell                                     

  volume of cell :     543.9272

  direct lattice vectors                    reciprocal lattice vectors
     0.000017202  6.478841760  6.478598231    -0.077167874  0.077173485  0.077178197
     6.479482142 -0.000050411  6.478665833     0.077165858 -0.077173890  0.077176586
     6.479330049  6.478757295  0.000101648     0.077169480  0.077175497 -0.077178603

  length of vectors
     9.162293686  9.162794323  9.162751442     0.133667878  0.133666018  0.133670201

  position of ions in fractional coordinates (direct lattice)
     0.249498477  0.251206726  0.249955299
     0.750591490  0.249614275  0.250472289
     0.249153244  0.749423384  0.250798712
     0.750279748  0.749798704  0.250236307
     0.250245846  0.249752764  0.750379959
     0.749114210  0.249414701  0.750795224
     0.250626581  0.749557386  0.750478776
     0.749548148  0.751186555  0.749820200
     0.000094278  0.999933975  0.000007317
     0.499123448  0.999682061  0.001232572
     0.999887470  0.500337737  0.999675595
     0.500590400  0.499946473  0.000253444
     0.000645395  0.999893809  0.500233711
     0.499857664  0.000327767  0.499732580
     0.999173592  0.499676289  0.501173881
     0.500010731  0.499926637  0.500018030

  ion indices of the primitive-cell ions
   primitive index   ion index
                 1           1
                 2           2
                 3           3
                 4           4
                 5           5
                 6           6
                 7           7
                 8           8
                 9           9
                10          10
                11          11
                12          12
                13          13
                14          14
                15          15
                16          16

----------------------------------------------------------------------------------------



 KPOINTS: Regular k-point mesh                    

Automatic generation of k-mesh.
 Grid dimensions read from file:
 generate k-points for:    6    6    6

 Generating k-lattice:

  Cartesian coordinates                     Fractional coordinates (reciprocal lattice)
    -0.012861312  0.012862247  0.012863033     0.166666667  0.000000000  0.000000000
     0.012860976 -0.012862315  0.012862764     0.000000000  0.166666667 -0.000000000
     0.012861580  0.012862583 -0.012863100    -0.000000000  0.000000000  0.166666667

  Length of vectors
     0.022277980  0.022277670  0.022278367

  Shift w.r.t. Gamma in fractional coordinates (k-lattice)
     0.000000000  0.000000000  0.000000000

 
 Subroutine IBZKPT returns following result:
 ===========================================
 
 Found    112 irreducible k-points:
 
 Following reciprocal coordinates:
            Coordinates               Weight
  0.000000  0.000000  0.000000      1.000000
  0.166667  0.000000  0.000000      2.000000
  0.000000  0.166667  0.000000      2.000000
  0.333333  0.000000  0.000000      2.000000
  0.000000  0.333333  0.000000      2.000000
  0.500000  0.000000  0.000000      1.000000
  0.000000  0.500000  0.000000      1.000000
  0.166667  0.166667  0.000000      2.000000
  0.333333  0.166667  0.000000      2.000000
  0.166667  0.333333  0.000000      2.000000
  0.500000  0.166667  0.000000      2.000000
  0.166667  0.500000  0.000000      2.000000
 -0.333333  0.166667  0.000000      2.000000
  0.166667 -0.333333  0.000000      2.000000
 -0.166667  0.166667  0.000000      2.000000
  0.333333  0.333333  0.000000      2.000000
  0.500000  0.333333  0.000000      2.000000
  0.333333  0.500000  0.000000      2.000000
 -0.333333  0.333333  0.000000      2.000000
  0.500000  0.500000  0.000000      1.000000
  0.000000  0.000000  0.166667      2.000000
 -0.166667 -0.166667 -0.166667      2.000000
  0.166667  0.000000  0.166667      2.000000
  0.333333  0.000000  0.166667      2.000000
 -0.166667  0.166667 -0.166667      2.000000
  0.500000  0.000000  0.166667      2.000000
 -0.166667  0.333333 -0.166667      2.000000
 -0.333333  0.000000  0.166667      2.000000
 -0.166667  0.500000 -0.166667      2.000000
 -0.166667  0.000000  0.166667      2.000000
 -0.166667 -0.333333 -0.166667      2.000000
  0.000000  0.166667  0.166667      2.000000
  0.333333  0.166667  0.166667      2.000000
  0.000000  0.166667 -0.166667      2.000000
  0.500000  0.166667  0.166667      2.000000
  0.000000  0.333333 -0.166667      2.000000
 -0.333333  0.166667  0.166667      2.000000
  0.000000  0.500000 -0.166667      2.000000
 -0.166667  0.166667  0.166667      2.000000
  0.000000 -0.333333 -0.166667      2.000000
  0.333333  0.333333  0.166667      2.000000
  0.166667  0.166667 -0.166667      2.000000
  0.500000  0.333333  0.166667      2.000000
  0.166667  0.333333 -0.166667      2.000000
 -0.333333  0.333333  0.166667      2.000000
  0.166667  0.500000 -0.166667      2.000000
 -0.166667  0.333333  0.166667      2.000000
  0.333333  0.500000  0.166667      2.000000
  0.333333  0.166667 -0.166667      2.000000
  0.500000  0.500000  0.166667      2.000000
  0.333333  0.333333 -0.166667      2.000000
 -0.333333  0.500000  0.166667      2.000000
  0.333333 -0.333333  0.166667      2.000000
  0.500000  0.166667 -0.166667      2.000000
  0.500000 -0.333333  0.166667      2.000000
  0.333333 -0.166667  0.166667      2.000000
  0.000000  0.000000  0.333333      2.000000
 -0.333333 -0.333333 -0.333333      2.000000
  0.166667  0.000000  0.333333      2.000000
 -0.333333 -0.166667 -0.333333      2.000000
  0.333333  0.000000  0.333333      2.000000
  0.500000  0.000000  0.333333      2.000000
 -0.333333  0.166667 -0.333333      2.000000
 -0.333333  0.000000  0.333333      2.000000
 -0.333333  0.333333 -0.333333      2.000000
 -0.166667  0.000000  0.333333      2.000000
 -0.333333  0.500000 -0.333333      2.000000
  0.000000  0.166667  0.333333      2.000000
 -0.166667 -0.333333 -0.333333      2.000000
  0.166667  0.166667  0.333333      2.000000
  0.500000  0.166667  0.333333      2.000000
 -0.166667  0.166667 -0.333333      2.000000
 -0.333333  0.166667  0.333333      2.000000
 -0.166667  0.333333 -0.333333      2.000000
 -0.166667  0.166667  0.333333      2.000000
 -0.166667  0.500000 -0.333333      2.000000
  0.000000  0.333333  0.333333      2.000000
  0.500000  0.333333  0.333333      2.000000
  0.000000  0.166667 -0.333333      2.000000
 -0.333333  0.333333  0.333333      2.000000
  0.000000  0.333333 -0.333333      2.000000
 -0.166667  0.333333  0.333333      2.000000
  0.000000  0.500000 -0.333333      2.000000
  0.500000  0.500000  0.333333      2.000000
  0.166667  0.166667 -0.333333      2.000000
 -0.333333  0.500000  0.333333      2.000000
  0.166667  0.333333 -0.333333      2.000000
 -0.166667  0.500000  0.333333      2.000000
  0.500000 -0.333333  0.333333      2.000000
  0.333333  0.166667 -0.333333      2.000000
 -0.333333 -0.333333  0.333333      2.000000
  0.500000 -0.166667  0.333333      2.000000
  0.000000  0.000000  0.500000      1.000000
  0.500000  0.500000  0.500000      1.000000
  0.166667  0.000000  0.500000      2.000000
  0.500000 -0.333333  0.500000      2.000000
  0.333333  0.000000  0.500000      2.000000
  0.500000 -0.166667  0.500000      2.000000
  0.500000  0.000000  0.500000      1.000000
  0.000000  0.166667  0.500000      2.000000
 -0.333333  0.500000  0.500000      2.000000
  0.166667  0.166667  0.500000      2.000000
 -0.333333 -0.333333  0.500000      2.000000
  0.333333  0.166667  0.500000      2.000000
 -0.333333  0.166667  0.500000      2.000000
 -0.166667  0.166667  0.500000      2.000000
 -0.333333  0.333333  0.500000      2.000000
  0.000000  0.333333  0.500000      2.000000
 -0.166667  0.500000  0.500000      2.000000
  0.166667  0.333333  0.500000      2.000000
 -0.166667  0.333333  0.500000      2.000000
  0.000000  0.500000  0.500000      1.000000
 
 Following cartesian coordinates:
            Coordinates               Weight
  0.000000  0.000000  0.000000      1.000000
 -0.012861  0.012862  0.012863      2.000000
  0.012861 -0.012862  0.012863      2.000000
 -0.025723  0.025724  0.025726      2.000000
  0.025722 -0.025725  0.025726      2.000000
 -0.038584  0.038587  0.038589      1.000000
  0.038583 -0.038587  0.038588      1.000000
 -0.000000 -0.000000  0.025726      2.000000
 -0.012862  0.012862  0.038589      2.000000
  0.012861 -0.012862  0.038589      2.000000
 -0.025723  0.025724  0.051452      2.000000
  0.025722 -0.025725  0.051451      2.000000
  0.038584 -0.038587 -0.012863      2.000000
 -0.038583  0.038587 -0.012862      2.000000
  0.025722 -0.025725 -0.000000      2.000000
 -0.000001 -0.000000  0.051452      2.000000
 -0.012862  0.012862  0.064315      2.000000
  0.012860 -0.012862  0.064314      2.000000
  0.051445 -0.051449 -0.000001      2.000000
 -0.000001 -0.000000  0.077177      1.000000
  0.012862  0.012863 -0.012863      2.000000
 -0.012861 -0.012863 -0.012863      2.000000
  0.000000  0.025725 -0.000000      2.000000
 -0.012861  0.038587  0.012863      2.000000
  0.012861 -0.038587  0.012863      2.000000
 -0.025722  0.051449  0.025726      2.000000
  0.025722 -0.051449  0.025726      2.000000
  0.038584 -0.012862 -0.038589      2.000000
  0.038583 -0.064312  0.038588      2.000000
  0.025723  0.000000 -0.025726      2.000000
 -0.025722 -0.000000 -0.025725      2.000000
  0.025723  0.000000 -0.000000      2.000000
 -0.000000  0.025725  0.025726      2.000000
 -0.000001 -0.025725  0.025726      2.000000
 -0.012861  0.038587  0.038589      2.000000
  0.012860 -0.038587  0.038589      2.000000
  0.051445 -0.025724 -0.025726      2.000000
  0.025721 -0.051450  0.051451      2.000000
  0.038584 -0.012862 -0.012863      2.000000
 -0.038584  0.012862 -0.012862      2.000000
  0.012861  0.012862  0.038588      2.000000
 -0.012862 -0.012863  0.038589      2.000000
 -0.000000  0.025725  0.051452      2.000000
 -0.000001 -0.025725  0.051452      2.000000
  0.064306 -0.038587 -0.012864      2.000000
  0.012860 -0.038587  0.064314      2.000000
  0.051445 -0.025724 -0.000001      2.000000
  0.025722  0.000000  0.051451      2.000000
 -0.025723 -0.000000  0.051452      2.000000
  0.012861  0.012862  0.064314      2.000000
 -0.012862 -0.012863  0.064315      2.000000
  0.077167 -0.051449 -0.000001      2.000000
 -0.038583  0.064312 -0.012863      2.000000
 -0.038585  0.012862  0.064315      2.000000
 -0.051444  0.077174  0.000000      2.000000
 -0.025722  0.051449  0.000000      2.000000
  0.025723  0.025725 -0.025726      2.000000
 -0.025722 -0.025725 -0.025725      2.000000
  0.012862  0.038587 -0.012863      2.000000
 -0.012862 -0.038587 -0.012863      2.000000
  0.000001  0.051450 -0.000000      2.000000
 -0.012861  0.064312  0.012863      2.000000
  0.012860 -0.064312  0.012863      2.000000
  0.051446  0.000001 -0.051452      2.000000
  0.025721 -0.077174  0.025726      2.000000
  0.038584  0.012863 -0.038589      2.000000
  0.038582 -0.090037  0.038588      2.000000
  0.038584  0.012863 -0.012863      2.000000
 -0.038584 -0.012863 -0.012862      2.000000
  0.025723  0.025725 -0.000000      2.000000
  0.000000  0.051450  0.025726      2.000000
 -0.000001 -0.051450  0.025726      2.000000
  0.064307 -0.012862 -0.038590      2.000000
  0.012860 -0.064312  0.038589      2.000000
  0.051445  0.000001 -0.025726      2.000000
  0.025721 -0.077174  0.051451      2.000000
  0.051445  0.000001 -0.000001      2.000000
  0.012861  0.038587  0.038588      2.000000
 -0.012862 -0.038587  0.038589      2.000000
  0.077168 -0.025724 -0.025727      2.000000
 -0.000001 -0.051450  0.051452      2.000000
  0.064306 -0.012862 -0.012864      2.000000
  0.012860 -0.064312  0.064314      2.000000
  0.025722  0.025725  0.051451      2.000000
 -0.025723 -0.025725  0.051452      2.000000
  0.090029 -0.038586 -0.012864      2.000000
 -0.012863 -0.038588  0.064315      2.000000
  0.077167 -0.025724 -0.000001      2.000000
 -0.038583  0.090037 -0.012863      2.000000
 -0.038585 -0.012863  0.064315      2.000000
  0.025724  0.025725 -0.077178      2.000000
 -0.025722  0.077174  0.000000      2.000000
  0.038585  0.038588 -0.038589      1.000000
  0.038584  0.038588  0.038588      1.000000
  0.025723  0.051450 -0.025726      2.000000
 -0.025721  0.102899 -0.025726      2.000000
  0.012862  0.064312 -0.012863      2.000000
 -0.012860  0.090037 -0.012863      2.000000
  0.000001  0.077174 -0.000000      1.000000
  0.051446  0.025725 -0.025727      2.000000
  0.102890 -0.025724 -0.025727      2.000000
  0.038584  0.038588 -0.012864      2.000000
  0.038585  0.038588 -0.090041      2.000000
  0.025723  0.051450 -0.000000      2.000000
  0.077168  0.000001 -0.051453      2.000000
  0.064307  0.012863 -0.038590      2.000000
  0.090029 -0.012861 -0.038590      2.000000
  0.064307  0.012863 -0.012864      2.000000
  0.090029 -0.012861 -0.012864      2.000000
  0.051445  0.025725 -0.000001      2.000000
  0.077168  0.000001 -0.025727      2.000000
  0.077168  0.000001 -0.000001      1.000000
 


--------------------------------------------------------------------------------------------------------




 Dimension of arrays:
   k-points           NKPTS =    112   k-points in BZ     NKDIM =    112   number of bands    NBANDS=     96
   number of dos      NEDOS =   1000   number of ions     NIONS =     16
   non local maximal  LDIM  =      6   non local SUM 2l+1 LMDIM =     18
   total plane-waves  NPLWV = 343000
   max r-space proj   IRMAX =      1   max aug-charges    IRDMAX= 293585
   dimension x,y,z NGX =    70 NGY =   70 NGZ =   70
   dimension x,y,z NGXF=   140 NGYF=  140 NGZF=  140
   support grid    NGXF=   280 NGYF=  280 NGZF=  280
   ions per type =               8   8
   NGX,Y,Z   is equivalent  to a cutoff of  12.70, 12.70, 12.70 a.u.
   NGXF,Y,Z  is equivalent  to a cutoff of  25.40, 25.40, 25.40 a.u.

 SYSTEM =  unknown system                          
 POSCAR =  Pb Te                                   

 Startparameter for this run:
   NWRITE =      2    write-flag & timer
   PREC   = accura    normal or accurate (medium, high low for compatibility)
   ISTART =      0    job   : 0-new  1-cont  2-samecut
   ICHARG =      2    charge: 1-file 2-atom 10-const
   ISPIN  =      1    spin polarized calculation?
   LNONCOLLINEAR =      F non collinear calculations
   LSORBIT =      F    spin-orbit coupling
   INIWAV =      1    electr: 0-lowe 1-rand  2-diag
   LASPH  =      F    aspherical Exc in radial PAW
 Electronic Relaxation 1
   ENCUT  =  500.0 eV  36.75 Ry    6.06 a.u.  16.70 16.71 16.71*2*pi/ulx,y,z
   ENINI  =  500.0     initial cutoff
   ENAUG  =  391.9 eV  augmentation charge cutoff
   NELM   =    500;   NELMIN=  3; NELMDL=  0     # of ELM steps 
   EDIFF  = 0.1E-08   stopping-criterion for ELM
   LREAL  =      F    real-space projection
   NLSPLINE    = F    spline interpolate recip. space projectors
   LCOMPAT=      F    compatible to vasp.4.4
   GGA_COMPAT  = T    GGA compatible to vasp.4.4-vasp.4.6
   LMAXPAW     = -100 max onsite density
   LMAXMIX     =    4 max onsite mixed and CHGCAR
   VOSKOWN=      0    Vosko Wilk Nusair interpolation
   ROPT   =    0.00000   0.00000
 Ionic relaxation
   EDIFFG = -.1E-07   stopping-criterion for IOM
   NSW    =     10    number of steps for IOM
   NBLOCK =      1;   KBLOCK =      1    inner block; outer block 
   IBRION =      2    ionic relax: 0-MD 1-quasi-New 2-CG
   NFREE  =      1    steps in history (QN), initial steepest desc. (CG)
   ISIF   =      2    stress and relaxation
   IWAVPR =     11    prediction:  0-non 1-charg 2-wave 3-comb
   ISYM   =      2    0-nonsym 1-usesym 2-fastsym
   LCORR  =      T    Harris-Foulkes like correction to forces

   POTIM  = 0.5000    time-step for ionic-motion
   TEIN   =    0.0    initial temperature
   TEBEG  =    0.0;   TEEND  =   0.0 temperature during run
   SMASS  =  -3.00    Nose mass-parameter (am)
   estimated Nose-frequenzy (Omega)   =  0.10E-29 period in steps = 0.13E+47 mass=  -0.192E-26a.u.
   SCALEE = 1.0000    scale energy and forces
   NPACO  =    256;   APACO  = 10.0  distance and # of slots for P.C.
   PSTRESS=    0.0 pullay stress

  Mass of Ions in am
   POMASS = 207.20127.60
  Ionic Valenz
   ZVAL   =  14.00  6.00
  Atomic Wigner-Seitz radii
   RWIGS  =  -1.00 -1.00
  virtual crystal weights 
   VCA    =   1.00  1.00
   NELECT =     160.0000    total number of electrons
   NUPDOWN=      -1.0000    fix difference up-down

 DOS related values:
   EMIN   =  10.00;   EMAX   =-10.00  energy-range for DOS
   EFERMI =   0.00
   ISMEAR =     0;   SIGMA  =   0.01  broadening in eV -4-tet -1-fermi 0-gaus

 Electronic relaxation 2 (details)
   IALGO  =     68    algorithm
   LDIAG  =      T    sub-space diagonalisation (order eigenvalues)
   LSUBROT=      F    optimize rotation matrix (better conditioning)
   TURBO    =      0    0=normal 1=particle mesh
   IRESTART =      0    0=no restart 2=restart with 2 vectors
   NREBOOT  =      0    no. of reboots
   NMIN     =      0    reboot dimension
   EREF     =   0.00    reference energy to select bands
   IMIX   =      4    mixing-type and parameters
     AMIX     =   0.40;   BMIX     =  1.00
     AMIX_MAG =   1.60;   BMIX_MAG =  1.00
     AMIN     =   0.10
     WC   =   100.;   INIMIX=   1;  MIXPRE=   1;  MAXMIX=  20

 Intra band minimization:
   WEIMIN = 0.0010     energy-eigenvalue tresh-hold
   EBREAK =  0.26E-11  absolut break condition
   DEPER  =   0.30     relativ break condition  

   TIME   =   0.40     timestep for ELM

  volume/ion in A,a.u.               =      34.00       229.41
  Fermi-wavevector in a.u.,A,eV,Ry     =   1.088766  2.057470 16.128503  1.185412
  Thomas-Fermi vector in A             =   2.224955

 Write flags
   LWAVE        =      F    write WAVECAR
   LDOWNSAMPLE  =      F    k-point downsampling of WAVECAR
   LCHARG       =      F    write CHGCAR
   LVTOT        =      F    write LOCPOT, total local potential
   LVHAR        =      F    write LOCPOT, Hartree potential only
   LELF         =      F    write electronic localiz. function (ELF)
   LORBIT       =     11    0 simple, 1 ext, 2 COOP (PROOUT), +10 PAW based schemes


 Dipole corrections
   LMONO  =      F    monopole corrections only (constant potential shift)
   LDIPOL =      F    correct potential (dipole corrections)
   IDIPOL =      0    1-x, 2-y, 3-z, 4-all directions 
   EPSILON=  1.0000000 bulk dielectric constant

 Core level calculations are selected ICORELEVEL =  1
 Exchange correlation treatment:
   GGA     =    PS    GGA type
   LEXCH   =    14    internal setting for exchange type
   LIBXC   =     F    Libxc                    
   VOSKOWN =     0    Vosko Wilk Nusair interpolation
   LHFCALC =     F    Hartree Fock is set to
   LHFONE  =     F    Hartree Fock one center treatment
   AEXX    =    0.0000 exact exchange contribution

 Linear response parameters
   LEPSILON=     F    determine dielectric tensor
   LRPA    =     F    only Hartree local field effects (RPA)
   LNABLA  =     F    use nabla operator in PAW spheres
   LVEL    =     F    velocity operator in full k-point grid
   CSHIFT  =0.1000    complex shift for real part using Kramers Kronig
   OMEGAMAX=  -1.0    maximum frequency
   DEG_THRESHOLD= 0.2000000E-02 threshold for treating states as degnerate
   RTIME   =   -0.100 relaxation time in fs
  (WPLASMAI=    0.000 imaginary part of plasma frequency in eV, 0.658/RTIME)
   DFIELD  = 0.0000000 0.0000000 0.0000000 field for delta impulse in time

  Optional k-point grid parameters
   LKPOINTS_OPT  =     F    use optional k-point grid
   KPOINTS_OPT_MODE=     1    mode for optional k-point grid

 Orbital magnetization related:
   ORBITALMAG=     F  switch on orbital magnetization
   LCHIMAG   =     F  perturbation theory with respect to B field
   DQ        =  0.001000  dq finite difference perturbation B field
   LLRAUG    =     F  two centre corrections for induced B field



--------------------------------------------------------------------------------------------------------


 conjugate gradient relaxation of ions
 charge density and potential will be updated during run
 non-spin polarized calculation
 RMM-DIIS sequential band-by-band and
  variant of blocked Davidson during initial phase
 perform sub-space diagonalisation
    before iterative eigenvector-optimisation
 modified Broyden-mixing scheme, WC =      100.0
 initial mixing is a Kerker type mixing with AMIX =  0.4000 and BMIX =      1.0000
 Hartree-type preconditioning will be used
 using additional bands           16
 reciprocal scheme for non local part
 use partial core corrections
 calculate Harris-corrections to forces   (improved forces if not selfconsistent)
 use gradient corrections 
 use of overlap-Matrix (Vanderbilt PP)
 Gauss-broadening in eV      SIGMA  =   0.01


--------------------------------------------------------------------------------------------------------


  energy-cutoff  :      500.00
  volume of cell :      543.93
      direct lattice vectors                 reciprocal lattice vectors
     0.000017202  6.478841760  6.478598231    -0.077167874  0.077173485  0.077178197
     6.479482142 -0.000050411  6.478665833     0.077165858 -0.077173890  0.077176586
     6.479330049  6.478757295  0.000101648     0.077169480  0.077175497 -0.077178603

  length of vectors
     9.162293686  9.162794323  9.162751442     0.133667878  0.133666018  0.133670201



 k-points in units of 2pi/SCALE and weight: Regular k-point mesh                    
   0.00000000  0.00000000  0.00000000       0.005
  -0.01286131  0.01286225  0.01286303       0.009
   0.01286098 -0.01286232  0.01286276       0.009
  -0.02572262  0.02572449  0.02572607       0.009
   0.02572195 -0.02572463  0.02572553       0.009
  -0.03858394  0.03858674  0.03858910       0.005
   0.03858293 -0.03858695  0.03858829       0.005
  -0.00000034 -0.00000007  0.02572580       0.009
  -0.01286165  0.01286218  0.03858883       0.009
   0.01286064 -0.01286238  0.03858856       0.009
  -0.02572296  0.02572443  0.05145186       0.009
   0.02572162 -0.02572470  0.05145133       0.009
   0.03858360 -0.03858681 -0.01286330       0.009
  -0.03858326  0.03858688 -0.01286250       0.009
   0.02572229 -0.02572456 -0.00000027       0.009
  -0.00000067 -0.00000014  0.05145159       0.009
  -0.01286198  0.01286211  0.06431463       0.009
   0.01286030 -0.01286245  0.06431436       0.009
   0.05144458 -0.05144913 -0.00000054       0.009
  -0.00000101 -0.00000020  0.07717739       0.005
   0.01286158  0.01286258 -0.01286310       0.009
  -0.01286124 -0.01286252 -0.01286270       0.009
   0.00000027  0.02572483 -0.00000007       0.009
  -0.01286104  0.03858708  0.01286297       0.009
   0.01286071 -0.03858715  0.01286283       0.009
  -0.02572236  0.05144933  0.02572600       0.009
   0.02572168 -0.05144946  0.02572560       0.009
   0.03858420 -0.01286191 -0.03858917       0.009
   0.03858266 -0.06431178  0.03858836       0.009
   0.02572289  0.00000034 -0.02572613       0.009
  -0.02572222 -0.00000020 -0.02572546       0.009
   0.02572256  0.00000027 -0.00000034       0.009
  -0.00000007  0.02572476  0.02572573       0.009
  -0.00000060 -0.02572490  0.02572586       0.009
  -0.01286138  0.03858701  0.03858876       0.009
   0.01286037 -0.03858721  0.03858863       0.009
   0.05144518 -0.02572423 -0.02572640       0.009
   0.02572135 -0.05144953  0.05145139       0.009
   0.03858387 -0.01286198 -0.01286337       0.009
  -0.03858353  0.01286205 -0.01286243       0.009
   0.01286091  0.01286245  0.03858849       0.009
  -0.01286192 -0.01286265  0.03858890       0.009
  -0.00000040  0.02572470  0.05145153       0.009
  -0.00000094 -0.02572497  0.05145166       0.009
   0.06430616 -0.03858654 -0.01286364       0.009
   0.01286004 -0.03858728  0.06431443       0.009
   0.05144484 -0.02572429 -0.00000060       0.009
   0.02572188  0.00000013  0.05145126       0.009
  -0.02572323 -0.00000040  0.05145193       0.009
   0.01286057  0.01286238  0.06431429       0.009
  -0.01286225 -0.01286272  0.06431470       0.009
   0.07716713 -0.05144886 -0.00000087       0.009
  -0.03858300  0.06431171 -0.01286256       0.009
  -0.03858454  0.01286184  0.06431496       0.009
  -0.05144431  0.07717396  0.00000047       0.009
  -0.02572202  0.05144939  0.00000020       0.009
   0.02572316  0.02572517 -0.02572620       0.009
  -0.02572249 -0.02572503 -0.02572539       0.009
   0.01286185  0.03858741 -0.01286317       0.009
  -0.01286151 -0.03858735 -0.01286263       0.009
   0.00000054  0.05144966 -0.00000014       0.009
  -0.01286078  0.06431191  0.01286290       0.009
   0.01286044 -0.06431198  0.01286290       0.009
   0.05144578  0.00000067 -0.05145227       0.009
   0.02572142 -0.07717429  0.02572566       0.009
   0.03858447  0.01286292 -0.03858923       0.009
   0.03858239 -0.09003661  0.03858843       0.009
   0.03858414  0.01286285 -0.01286344       0.009
  -0.03858380 -0.01286278 -0.01286236       0.009
   0.02572282  0.02572510 -0.00000040       0.009
   0.00000020  0.05144959  0.02572566       0.009
  -0.00000087 -0.05144973  0.02572593       0.009
   0.06430676 -0.01286164 -0.03858950       0.009
   0.01286010 -0.06431204  0.03858870       0.009
   0.05144545  0.00000060 -0.02572647       0.009
   0.02572108 -0.07717436  0.05145146       0.009
   0.05144511  0.00000054 -0.00000067       0.009
   0.01286118  0.03858728  0.03858843       0.009
  -0.01286218 -0.03858748  0.03858897       0.009
   0.07716774 -0.02572396 -0.02572674       0.009
  -0.00000121 -0.05144980  0.05145173       0.009
   0.06430642 -0.01286171 -0.01286371       0.009
   0.01285977 -0.06431211  0.06431449       0.009
   0.02572215  0.02572496  0.05145119       0.009
  -0.02572350 -0.02572523  0.05145200       0.009
   0.09002871 -0.03858627 -0.01286397       0.009
  -0.01286252 -0.03858755  0.06431476       0.009
   0.07716740 -0.02572403 -0.00000094       0.009
  -0.03858273  0.09003654 -0.01286263       0.009
  -0.03858481 -0.01286299  0.06431503       0.009
   0.02572383  0.02572530 -0.07717780       0.009
  -0.02572175  0.07717422  0.00000013       0.009
   0.03858474  0.03858775 -0.03858930       0.005
   0.03858373  0.03858755  0.03858809       0.005
   0.02572343  0.05145000 -0.02572627       0.009
  -0.02572115  0.10289912 -0.02572573       0.009
   0.01286212  0.06431224 -0.01286324       0.009
  -0.01286017  0.09003681 -0.01286297       0.009
   0.00000080  0.07717449 -0.00000020       0.005
   0.05144572  0.02572543 -0.02572654       0.009
   0.10289029 -0.02572369 -0.02572707       0.009
   0.03858440  0.03858768 -0.01286350       0.009
   0.03858541  0.03858788 -0.09004090       0.009
   0.02572309  0.05144993 -0.00000047       0.009
   0.07716834  0.00000094 -0.05145260       0.009
   0.06430703  0.01286319 -0.03858957       0.009
   0.09002932 -0.01286138 -0.03858984       0.009
   0.06430669  0.01286312 -0.01286377       0.009
   0.09002898 -0.01286144 -0.01286404       0.009
   0.05144538  0.02572537 -0.00000074       0.009
   0.07716800  0.00000087 -0.02572681       0.009
   0.07716767  0.00000080 -0.00000101       0.005

 k-points in reciprocal lattice and weights: Regular k-point mesh                    
   0.00000000  0.00000000  0.00000000       0.005
   0.16666667  0.00000000  0.00000000       0.009
   0.00000000  0.16666667  0.00000000       0.009
   0.33333333  0.00000000  0.00000000       0.009
   0.00000000  0.33333333  0.00000000       0.009
   0.50000000  0.00000000  0.00000000       0.005
   0.00000000  0.50000000  0.00000000       0.005
   0.16666667  0.16666667  0.00000000       0.009
   0.33333333  0.16666667  0.00000000       0.009
   0.16666667  0.33333333  0.00000000       0.009
   0.50000000  0.16666667  0.00000000       0.009
   0.16666667  0.50000000  0.00000000       0.009
  -0.33333333  0.16666667  0.00000000       0.009
   0.16666667 -0.33333333  0.00000000       0.009
  -0.16666667  0.16666667  0.00000000       0.009
   0.33333333  0.33333333  0.00000000       0.009
   0.50000000  0.33333333  0.00000000       0.009
   0.33333333  0.50000000  0.00000000       0.009
  -0.33333333  0.33333333  0.00000000       0.009
   0.50000000  0.50000000  0.00000000       0.005
   0.00000000  0.00000000  0.16666667       0.009
  -0.16666667 -0.16666667 -0.16666667       0.009
   0.16666667  0.00000000  0.16666667       0.009
   0.33333333  0.00000000  0.16666667       0.009
  -0.16666667  0.16666667 -0.16666667       0.009
   0.50000000  0.00000000  0.16666667       0.009
  -0.16666667  0.33333333 -0.16666667       0.009
  -0.33333333  0.00000000  0.16666667       0.009
  -0.16666667  0.50000000 -0.16666667       0.009
  -0.16666667  0.00000000  0.16666667       0.009
  -0.16666667 -0.33333333 -0.16666667       0.009
   0.00000000  0.16666667  0.16666667       0.009
   0.33333333  0.16666667  0.16666667       0.009
   0.00000000  0.16666667 -0.16666667       0.009
   0.50000000  0.16666667  0.16666667       0.009
   0.00000000  0.33333333 -0.16666667       0.009
  -0.33333333  0.16666667  0.16666667       0.009
   0.00000000  0.50000000 -0.16666667       0.009
  -0.16666667  0.16666667  0.16666667       0.009
   0.00000000 -0.33333333 -0.16666667       0.009
   0.33333333  0.33333333  0.16666667       0.009
   0.16666667  0.16666667 -0.16666667       0.009
   0.50000000  0.33333333  0.16666667       0.009
   0.16666667  0.33333333 -0.16666667       0.009
  -0.33333333  0.33333333  0.16666667       0.009
   0.16666667  0.50000000 -0.16666667       0.009
  -0.16666667  0.33333333  0.16666667       0.009
   0.33333333  0.50000000  0.16666667       0.009
   0.33333333  0.16666667 -0.16666667       0.009
   0.50000000  0.50000000  0.16666667       0.009
   0.33333333  0.33333333 -0.16666667       0.009
  -0.33333333  0.50000000  0.16666667       0.009
   0.33333333 -0.33333333  0.16666667       0.009
   0.50000000  0.16666667 -0.16666667       0.009
   0.50000000 -0.33333333  0.16666667       0.009
   0.33333333 -0.16666667  0.16666667       0.009
   0.00000000  0.00000000  0.33333333       0.009
  -0.33333333 -0.33333333 -0.33333333       0.009
   0.16666667  0.00000000  0.33333333       0.009
  -0.33333333 -0.16666667 -0.33333333       0.009
   0.33333333  0.00000000  0.33333333       0.009
   0.50000000  0.00000000  0.33333333       0.009
  -0.33333333  0.16666667 -0.33333333       0.009
  -0.33333333  0.00000000  0.33333333       0.009
  -0.33333333  0.33333333 -0.33333333       0.009
  -0.16666667  0.00000000  0.33333333       0.009
  -0.33333333  0.50000000 -0.33333333       0.009
   0.00000000  0.16666667  0.33333333       0.009
  -0.16666667 -0.33333333 -0.33333333       0.009
   0.16666667  0.16666667  0.33333333       0.009
   0.50000000  0.16666667  0.33333333       0.009
  -0.16666667  0.16666667 -0.33333333       0.009
  -0.33333333  0.16666667  0.33333333       0.009
  -0.16666667  0.33333333 -0.33333333       0.009
  -0.16666667  0.16666667  0.33333333       0.009
  -0.16666667  0.50000000 -0.33333333       0.009
   0.00000000  0.33333333  0.33333333       0.009
   0.50000000  0.33333333  0.33333333       0.009
   0.00000000  0.16666667 -0.33333333       0.009
  -0.33333333  0.33333333  0.33333333       0.009
   0.00000000  0.33333333 -0.33333333       0.009
  -0.16666667  0.33333333  0.33333333       0.009
   0.00000000  0.50000000 -0.33333333       0.009
   0.50000000  0.50000000  0.33333333       0.009
   0.16666667  0.16666667 -0.33333333       0.009
  -0.33333333  0.50000000  0.33333333       0.009
   0.16666667  0.33333333 -0.33333333       0.009
  -0.16666667  0.50000000  0.33333333       0.009
   0.50000000 -0.33333333  0.33333333       0.009
   0.33333333  0.16666667 -0.33333333       0.009
  -0.33333333 -0.33333333  0.33333333       0.009
   0.50000000 -0.16666667  0.33333333       0.009
   0.00000000  0.00000000  0.50000000       0.005
   0.50000000  0.50000000  0.50000000       0.005
   0.16666667  0.00000000  0.50000000       0.009
   0.50000000 -0.33333333  0.50000000       0.009
   0.33333333  0.00000000  0.50000000       0.009
   0.50000000 -0.16666667  0.50000000       0.009
   0.50000000  0.00000000  0.50000000       0.005
   0.00000000  0.16666667  0.50000000       0.009
  -0.33333333  0.50000000  0.50000000       0.009
   0.16666667  0.16666667  0.50000000       0.009
  -0.33333333 -0.33333333  0.50000000       0.009
   0.33333333  0.16666667  0.50000000       0.009
  -0.33333333  0.16666667  0.50000000       0.009
  -0.16666667  0.16666667  0.50000000       0.009
  -0.33333333  0.33333333  0.50000000       0.009
   0.00000000  0.33333333  0.50000000       0.009
  -0.16666667  0.50000000  0.50000000       0.009
   0.16666667  0.33333333  0.50000000       0.009
  -0.16666667  0.33333333  0.50000000       0.009
   0.00000000  0.50000000  0.50000000       0.005

 position of ions in fractional coordinates (direct lattice) 
   0.24949848  0.25120673  0.24995530
   0.75059149  0.24961427  0.25047229
   0.24915324  0.74942338  0.25079871
   0.75027975  0.74979870  0.25023631
   0.25024585  0.24975276  0.75037996
   0.74911421  0.24941470  0.75079522
   0.25062658  0.74955739  0.75047878
   0.74954815  0.75118655  0.74982020
   0.00009428  0.99993397  0.00000732
   0.49912345  0.99968206  0.00123257
   0.99988747  0.50033774  0.99967559
   0.50059040  0.49994647  0.00025344
   0.00064540  0.99989381  0.50023371
   0.49985766  0.00032777  0.49973258
   0.99917359  0.49967629  0.50117388
   0.50001073  0.49992664  0.50001803

 position of ions in cartesian coordinates  (Angst):
   3.24723667  3.23584820  3.24391023
   3.24027678  6.48570008  6.47997363
   6.48088735  3.23905065  6.46945293
   6.47968384  6.48212626  9.71848173
   6.48023230  6.48282028  3.23938327
   6.48074104  9.71759989  6.46916081
   9.71934769  6.48590201  6.47991704
   9.72564531  9.71406906  9.72278419
   6.47910174  0.00060781  6.47884886
   6.48541688  3.24167698  9.71022643
   9.71917475 12.95474302  9.71949181
   3.24104500  3.24486279  6.48211024
   9.71997340  3.24502381  6.48220996
   3.24006468  6.47614479  3.24055127
   6.48493177  9.72044634  9.71053091
   6.47905617  6.47896066  6.47827708



--------------------------------------------------------------------------------------------------------


 k-point   1 :   0.0000 0.0000 0.0000  plane waves:   13803
 k-point   2 :   0.1667 0.0000 0.0000  plane waves:   13830
 k-point   3 :   0.0000 0.1667 0.0000  plane waves:   13830
 k-point   4 :   0.3333 0.0000 0.0000  plane waves:   13833
 k-point   5 :   0.0000 0.3333 0.0000  plane waves:   13833
 k-point   6 :   0.5000 0.0000 0.0000  plane waves:   13798
 k-point   7 :   0.0000 0.5000 0.0000  plane waves:   13798
 k-point   8 :   0.1667 0.1667 0.0000  plane waves:   13811
 k-point   9 :   0.3333 0.1667 0.0000  plane waves:   13810
 k-point  10 :   0.1667 0.3333 0.0000  plane waves:   13810
 k-point  11 :   0.5000 0.1667 0.0000  plane waves:   13806
 k-point  12 :   0.1667 0.5000 0.0000  plane waves:   13806
 k-point  13 :  -0.3333 0.1667 0.0000  plane waves:   13805
 k-point  14 :   0.1667-0.3333 0.0000  plane waves:   13805
 k-point  15 :  -0.1667 0.1667 0.0000  plane waves:   13831
 k-point  16 :   0.3333 0.3333 0.0000  plane waves:   13836
 k-point  17 :   0.5000 0.3333 0.0000  plane waves:   13817
 k-point  18 :   0.3333 0.5000 0.0000  plane waves:   13817
 k-point  19 :  -0.3333 0.3333 0.0000  plane waves:   13766
 k-point  20 :   0.5000 0.5000 0.0000  plane waves:   13888
 k-point  21 :   0.0000 0.0000 0.1667  plane waves:   13830
 k-point  22 :  -0.1667-0.1667-0.1667  plane waves:   13830
 k-point  23 :   0.1667 0.0000 0.1667  plane waves:   13811
 k-point  24 :   0.3333 0.0000 0.1667  plane waves:   13810
 k-point  25 :  -0.1667 0.1667-0.1667  plane waves:   13810
 k-point  26 :   0.5000 0.0000 0.1667  plane waves:   13806
 k-point  27 :  -0.1667 0.3333-0.1667  plane waves:   13806
 k-point  28 :  -0.3333 0.0000 0.1667  plane waves:   13805
 k-point  29 :  -0.1667 0.5000-0.1667  plane waves:   13805
 k-point  30 :  -0.1667 0.0000 0.1667  plane waves:   13831
 k-point  31 :  -0.1667-0.3333-0.1667  plane waves:   13831
 k-point  32 :   0.0000 0.1667 0.1667  plane waves:   13811
 k-point  33 :   0.3333 0.1667 0.1667  plane waves:   13831
 k-point  34 :   0.0000 0.1667-0.1667  plane waves:   13831
 k-point  35 :   0.5000 0.1667 0.1667  plane waves:   13805
 k-point  36 :   0.0000 0.3333-0.1667  plane waves:   13805
 k-point  37 :  -0.3333 0.1667 0.1667  plane waves:   13806
 k-point  38 :   0.0000 0.5000-0.1667  plane waves:   13806
 k-point  39 :  -0.1667 0.1667 0.1667  plane waves:   13810
 k-point  40 :   0.0000-0.3333-0.1667  plane waves:   13810
 k-point  41 :   0.3333 0.3333 0.1667  plane waves:   13810
 k-point  42 :   0.1667 0.1667-0.1667  plane waves:   13810
 k-point  43 :   0.5000 0.3333 0.1667  plane waves:   13813
 k-point  44 :   0.1667 0.3333-0.1667  plane waves:   13813
 k-point  45 :  -0.3333 0.3333 0.1667  plane waves:   13796
 k-point  46 :   0.1667 0.5000-0.1667  plane waves:   13796
 k-point  47 :  -0.1667 0.3333 0.1667  plane waves:   13813
 k-point  48 :   0.3333 0.5000 0.1667  plane waves:   13813
 k-point  49 :   0.3333 0.1667-0.1667  plane waves:   13813
 k-point  50 :   0.5000 0.5000 0.1667  plane waves:   13817
 k-point  51 :   0.3333 0.3333-0.1667  plane waves:   13817
 k-point  52 :  -0.3333 0.5000 0.1667  plane waves:   13790
 k-point  53 :   0.3333-0.3333 0.1667  plane waves:   13796
 k-point  54 :   0.5000 0.1667-0.1667  plane waves:   13796
 k-point  55 :   0.5000-0.3333 0.1667  plane waves:   13790
 k-point  56 :   0.3333-0.1667 0.1667  plane waves:   13813
 k-point  57 :   0.0000 0.0000 0.3333  plane waves:   13833
 k-point  58 :  -0.3333-0.3333-0.3333  plane waves:   13833
 k-point  59 :   0.1667 0.0000 0.3333  plane waves:   13810
 k-point  60 :  -0.3333-0.1667-0.3333  plane waves:   13810
 k-point  61 :   0.3333 0.0000 0.3333  plane waves:   13836
 k-point  62 :   0.5000 0.0000 0.3333  plane waves:   13817
 k-point  63 :  -0.3333 0.1667-0.3333  plane waves:   13817
 k-point  64 :  -0.3333 0.0000 0.3333  plane waves:   13766
 k-point  65 :  -0.3333 0.3333-0.3333  plane waves:   13766
 k-point  66 :  -0.1667 0.0000 0.3333  plane waves:   13805
 k-point  67 :  -0.3333 0.5000-0.3333  plane waves:   13805
 k-point  68 :   0.0000 0.1667 0.3333  plane waves:   13810
 k-point  69 :  -0.1667-0.3333-0.3333  plane waves:   13810
 k-point  70 :   0.1667 0.1667 0.3333  plane waves:   13831
 k-point  71 :   0.5000 0.1667 0.3333  plane waves:   13813
 k-point  72 :  -0.1667 0.1667-0.3333  plane waves:   13813
 k-point  73 :  -0.3333 0.1667 0.3333  plane waves:   13796
 k-point  74 :  -0.1667 0.3333-0.3333  plane waves:   13796
 k-point  75 :  -0.1667 0.1667 0.3333  plane waves:   13813
 k-point  76 :  -0.1667 0.5000-0.3333  plane waves:   13813
 k-point  77 :   0.0000 0.3333 0.3333  plane waves:   13836
 k-point  78 :   0.5000 0.3333 0.3333  plane waves:   13805
 k-point  79 :   0.0000 0.1667-0.3333  plane waves:   13805
 k-point  80 :  -0.3333 0.3333 0.3333  plane waves:   13765
 k-point  81 :   0.0000 0.3333-0.3333  plane waves:   13765
 k-point  82 :  -0.1667 0.3333 0.3333  plane waves:   13817
 k-point  83 :   0.0000 0.5000-0.3333  plane waves:   13817
 k-point  84 :   0.5000 0.5000 0.3333  plane waves:   13806
 k-point  85 :   0.1667 0.1667-0.3333  plane waves:   13806
 k-point  86 :  -0.3333 0.5000 0.3333  plane waves:   13796
 k-point  87 :   0.1667 0.3333-0.3333  plane waves:   13796
 k-point  88 :  -0.1667 0.5000 0.3333  plane waves:   13790
 k-point  89 :   0.5000-0.3333 0.3333  plane waves:   13796
 k-point  90 :   0.3333 0.1667-0.3333  plane waves:   13796
 k-point  91 :  -0.3333-0.3333 0.3333  plane waves:   13766
 k-point  92 :   0.5000-0.1667 0.3333  plane waves:   13790
 k-point  93 :   0.0000 0.0000 0.5000  plane waves:   13798
 k-point  94 :   0.5000 0.5000 0.5000  plane waves:   13798
 k-point  95 :   0.1667 0.0000 0.5000  plane waves:   13806
 k-point  96 :   0.5000-0.3333 0.5000  plane waves:   13806
 k-point  97 :   0.3333 0.0000 0.5000  plane waves:   13817
 k-point  98 :   0.5000-0.1667 0.5000  plane waves:   13817
 k-point  99 :   0.5000 0.0000 0.5000  plane waves:   13888
 k-point 100 :   0.0000 0.1667 0.5000  plane waves:   13806
 k-point 101 :  -0.3333 0.5000 0.5000  plane waves:   13806
 k-point 102 :   0.1667 0.1667 0.5000  plane waves:   13805
 k-point 103 :  -0.3333-0.3333 0.5000  plane waves:   13805
 k-point 104 :   0.3333 0.1667 0.5000  plane waves:   13813
 k-point 105 :  -0.3333 0.1667 0.5000  plane waves:   13790
 k-point 106 :  -0.1667 0.1667 0.5000  plane waves:   13796
 k-point 107 :  -0.3333 0.3333 0.5000  plane waves:   13796
 k-point 108 :   0.0000 0.3333 0.5000  plane waves:   13817
 k-point 109 :  -0.1667 0.5000 0.5000  plane waves:   13817
 k-point 110 :   0.1667 0.3333 0.5000  plane waves:   13813
 k-point 111 :  -0.1667 0.3333 0.5000  plane waves:   13790
 k-point 112 :   0.0000 0.5000 0.5000  plane waves:   13888

 maximum and minimum number of plane-waves per node :       898      827

 maximum number of plane-waves:     13888
 maximum index in each direction: 
   IXMAX=   17   IYMAX=   17   IZMAX=   17
   IXMIN=  -17   IYMIN=  -17   IZMIN=  -17


 parallel 3D FFT for wavefunctions:
    minimum data exchange during FFTs selected (reduces bandwidth)
 parallel 3D FFT for charge:
    minimum data exchange during FFTs selected (reduces bandwidth)


 total amount of memory used by VASP MPI-rank0    86597. kBytes
=======================================================================

   base      :      30000. kBytes
   nonl-proj :      28870. kBytes
   fftplans  :       4898. kBytes
   grid      :       3203. kBytes
   one-center:         15. kBytes
   wavefun   :      19611. kBytes

     INWAV:  cpu time      0.0021: real time      0.0022
 Broyden mixing: mesh for mixing (old mesh)
   NGX = 33   NGY = 33   NGZ = 33
  (NGX  =140   NGY  =140   NGZ  =140)
  gives a total of  35937 points

 initial charge density was supplied:
 charge density of overlapping atoms calculated
 number of electron     160.0000000 magnetization 
 keeping initial charge density in first step


--------------------------------------------------------------------------------------------------------


 Maximum index for augmentation-charges         8227 (set IRDMAX)


--------------------------------------------------------------------------------------------------------


 First call to EWALD:  gamma=   0.217
 Maximum number of real-space cells 3x 3x 3
 Maximum number of reciprocal cells 3x 3x 3

    FEWALD:  cpu time      0.0058: real time      0.0062
    OFIELD:  cpu time      0.0000: real time      0.0000

  ML FORCE on cell =-STRESS in cart. coord. units (eV/cell)
  Direction    XX          YY          ZZ          XY          YZ          ZX
  --------------------------------------------------------------------------------------
  Total:      0.00000     0.00000     0.00000     0.00000     0.00000     0.00000
  in kB       0.00000     0.00000     0.00000     0.00000     0.00000     0.00000
  external pressure =        0.00 kB  Pullay stress =        0.00 kB

  kinetic pressure (ideal gas correction) =      0.00 kB
  total pressure  =      0.00 kB
  Total+kin.     0.000       0.000       0.000       0.000       0.000       0.000
  volume of cell :      543.93
      direct lattice vectors                 reciprocal lattice vectors
     0.000017202  6.478841760  6.478598231    -0.077167874  0.077173485  0.077178197
     6.479482142 -0.000050411  6.478665833     0.077165858 -0.077173890  0.077176586
     6.479330049  6.478757295  0.000101648     0.077169480  0.077175497 -0.077178603

  length of vectors
     9.162293686  9.162794323  9.162751442     0.133667878  0.133666018  0.133670201


  POSITION                                       TOTAL-FORCE (eV/Angst) (ML)
 -----------------------------------------------------------------------------------
      3.24724      3.23585      3.24391         0.000000      0.000000      0.000000
      3.24028      6.48570      6.47997         0.000000      0.000000      0.000000
      6.48089      3.23905      6.46945         0.000000      0.000000      0.000000
      6.47968      6.48213      9.71848         0.000000      0.000000      0.000000
      6.48023      6.48282      3.23938         0.000000      0.000000      0.000000
      6.48074      9.71760      6.46916         0.000000      0.000000      0.000000
      9.71935      6.48590      6.47992         0.000000      0.000000      0.000000
      9.72565      9.71407      9.72278         0.000000      0.000000      0.000000
      6.47910      0.00061      6.47885         0.000000      0.000000      0.000000
      6.48542      3.24168      9.71023         0.000000      0.000000      0.000000
      9.71917     12.95474      9.71949         0.000000      0.000000      0.000000
      3.24105      3.24486      6.48211         0.000000      0.000000      0.000000
      9.71997      3.24502      6.48221         0.000000      0.000000      0.000000
      3.24006      6.47614      3.24055         0.000000      0.000000      0.000000
      6.48493      9.72045      9.71053         0.000000      0.000000      0.000000
      6.47906      6.47896      6.47828         0.000000      0.000000      0.000000
 -----------------------------------------------------------------------------------
    total drift:                                0.000000      0.000000      0.000000


--------------------------------------------------------------------------------------------------------



  ML FREE ENERGIE OF THE ION-ELECTRON SYSTEM (eV)
  ---------------------------------------------------
  free  energy ML TOTEN  =         0.00000000 eV

  ML energy  without entropy=        0.00000000  ML energy(sigma->0) =        0.00000000



--------------------------------------- Iteration      1(   1)  ---------------------------------------


    POTLOK:  cpu time      0.0458: real time      0.0469
    SETDIJ:  cpu time      0.1796: real time      0.1800
     EDDAV:  cpu time     10.0710: real time     10.0750
       DOS:  cpu time      0.0085: real time      0.0085
    --------------------------------------------
      LOOP:  cpu time     10.3049: real time     10.3103

 eigenvalue-minimisations  : 21504
 total energy-change (2. order) : 0.1748320E+04  (-0.6700293E+04)
 number of electron     160.0000000 magnetization 
 augmentation part      160.0000000 magnetization 

 Free energy of the ion-electron system (eV)
  ---------------------------------------------------
  alpha Z        PSCENC =       285.96894664
  Ewald energy   TEWEN  =    -11083.98599801
  -Hartree energ DENC   =     -4054.61562765
  -exchange      EXHF   =         0.00000000
  -V(xc)+E(xc)   XCENC  =        91.03935137
  PAW double counting   =     13132.28373248   -12699.49664494
  entropy T*S    EENTRO =        -0.00025286
  eigenvalues    EBANDS =       993.07895998
  atomic energy  EATOM  =     15084.04723528
  Solvation  Ediel_sol  =         0.00000000
  ---------------------------------------------------
  free energy    TOTEN  =      1748.31970230 eV

  energy without entropy =     1748.31995516  energy(sigma->0) =     1748.31982873


--------------------------------------------------------------------------------------------------------




--------------------------------------- Iteration      1(   2)  ---------------------------------------


     EDDAV:  cpu time      9.9576: real time      9.9737
       DOS:  cpu time      0.0055: real time      0.0055
    --------------------------------------------
      LOOP:  cpu time      9.9631: real time      9.9793

 eigenvalue-minimisations  : 21560
 total energy-change (2. order) :-0.1568344E+04  (-0.1525676E+04)
 number of electron     160.0000000 magnetization 
 augmentation part      160.0000000 magnetization 

 Free energy of the ion-electron system (eV)
  ---------------------------------------------------
  alpha Z        PSCENC =       285.96894664
  Ewald energy   TEWEN  =    -11083.98599801
  -Hartree energ DENC   =     -4054.61562765
  -exchange      EXHF   =         0.00000000
  -V(xc)+E(xc)   XCENC  =        91.03935137
  PAW double counting   =     13132.28373248   -12699.49664494
  entropy T*S    EENTRO =        -0.00045909
  eigenvalues    EBANDS =      -575.26449343
  atomic energy  EATOM  =     15084.04723528
  Solvation  Ediel_sol  =         0.00000000
  ---------------------------------------------------
  free energy    TOTEN  =       179.97604266 eV

  energy without entropy =      179.97650174  energy(sigma->0) =      179.97627220


--------------------------------------------------------------------------------------------------------




--------------------------------------- Iteration      1(   3)  ---------------------------------------


     EDDAV:  cpu time     11.8506: real time     11.8706
       DOS:  cpu time      0.0028: real time      0.0028
    --------------------------------------------
      LOOP:  cpu time     11.8534: real time     11.8734

 eigenvalue-minimisations  : 26664
 total energy-change (2. order) :-0.2301951E+03  (-0.2191205E+03)
 number of electron     160.0000000 magnetization 
 augmentation part      160.0000000 magnetization 

 Free energy of the ion-electron system (eV)
  ---------------------------------------------------
  alpha Z        PSCENC =       285.96894664
  Ewald energy   TEWEN  =    -11083.98599801
  -Hartree energ DENC   =     -4054.61562765
  -exchange      EXHF   =         0.00000000
  -V(xc)+E(xc)   XCENC  =        91.03935137
  PAW double counting   =     13132.28373248   -12699.49664494
  entropy T*S    EENTRO =        -0.00000000
  eigenvalues    EBANDS =      -805.46004657
  atomic energy  EATOM  =     15084.04723528
  Solvation  Ediel_sol  =         0.00000000
  ---------------------------------------------------
  free energy    TOTEN  =       -50.21905139 eV

  energy without entropy =      -50.21905139  energy(sigma->0) =      -50.21905139


--------------------------------------------------------------------------------------------------------




--------------------------------------- Iteration      1(   4)  ---------------------------------------


     EDDAV:  cpu time     11.5619: real time     11.5774
       DOS:  cpu time      0.0055: real time      0.0055
    --------------------------------------------
      LOOP:  cpu time     11.5674: real time     11.5829

 eigenvalue-minimisations  : 25864
 total energy-change (2. order) :-0.1602529E+02  (-0.1581066E+02)
 number of electron     160.0000000 magnetization 
 augmentation part      160.0000000 magnetization 

 Free energy of the ion-electron system (eV)
  ---------------------------------------------------
  alpha Z        PSCENC =       285.96894664
  Ewald energy   TEWEN  =    -11083.98599801
  -Hartree energ DENC   =     -4054.61562765
  -exchange      EXHF   =         0.00000000
  -V(xc)+E(xc)   XCENC  =        91.03935137
  PAW double counting   =     13132.28373248   -12699.49664494
  entropy T*S    EENTRO =        -0.00000000
  eigenvalues    EBANDS =      -821.48533782
  atomic energy  EATOM  =     15084.04723528
  Solvation  Ediel_sol  =         0.00000000
  ---------------------------------------------------
  free energy    TOTEN  =       -66.24434265 eV

  energy without entropy =      -66.24434265  energy(sigma->0) =      -66.24434265


--------------------------------------------------------------------------------------------------------




--------------------------------------- Iteration      1(   5)  ---------------------------------------


     EDDAV:  cpu time     11.8000: real time     11.8166
       DOS:  cpu time      0.0029: real time      0.0029
    CHARGE:  cpu time      0.8075: real time      0.8078
    MIXING:  cpu time      0.0091: real time      0.0093
    --------------------------------------------
      LOOP:  cpu time     12.6195: real time     12.6366

 eigenvalue-minimisations  : 26848
 total energy-change (2. order) :-0.7692484E+00  (-0.7675532E+00)
 number of electron     160.0000002 magnetization 
 augmentation part       34.7080102 magnetization 

 Broyden mixing:
  rms(total) = 0.94491E+00    rms(broyden)= 0.94491E+00
  rms(prec ) = 0.11710E+01
  weight for this iteration     100.00

 Free energy of the ion-electron system (eV)
  ---------------------------------------------------
  alpha Z        PSCENC =       285.96894664
  Ewald energy   TEWEN  =    -11083.98599801
  -Hartree energ DENC   =     -4054.61562765
  -exchange      EXHF   =         0.00000000
  -V(xc)+E(xc)   XCENC  =        91.03935137
  PAW double counting   =     13132.28373248   -12699.49664494
  entropy T*S    EENTRO =        -0.00000000
  eigenvalues    EBANDS =      -822.25458624
  atomic energy  EATOM  =     15084.04723528
  Solvation  Ediel_sol  =         0.00000000
  ---------------------------------------------------
  free energy    TOTEN  =       -67.01359107 eV

  energy without entropy =      -67.01359107  energy(sigma->0) =      -67.01359107


--------------------------------------------------------------------------------------------------------




--------------------------------------- Iteration      1(   6)  ---------------------------------------


    POTLOK:  cpu time      0.0440: real time      0.0573
    SETDIJ:  cpu time      0.1722: real time      0.1722
    EDDIAG:  cpu time      2.9786: real time      2.9799
  RMM-DIIS:  cpu time      7.6917: real time      7.6959
    ORTHCH:  cpu time      0.2595: real time      0.2595
       DOS:  cpu time      0.0031: real time      0.0031
    CHARGE:  cpu time      0.7946: real time      0.7952
    MIXING:  cpu time      0.0038: real time      0.0038
    --------------------------------------------
      LOOP:  cpu time     11.9473: real time     11.9669

 eigenvalue-minimisations  : 21740
 total energy-change (2. order) : 0.9290256E+00  (-0.1723744E+00)
 number of electron     160.0000002 magnetization 
 augmentation part       34.9128680 magnetization 

 Broyden mixing:
  rms(total) = 0.54799E+00    rms(broyden)= 0.54799E+00
  rms(prec ) = 0.61860E+00
  weight for this iteration     100.00

 eigenvalues of (default mixing * dielectric matrix)
  average eigenvalue GAMMA=   2.2835
  2.2835

 Free energy of the ion-electron system (eV)
  ---------------------------------------------------
  alpha Z        PSCENC =       285.96894664
  Ewald energy   TEWEN  =    -11083.98599801
  -Hartree energ DENC   =     -4031.59097781
  -exchange      EXHF   =         0.00000000
  -V(xc)+E(xc)   XCENC  =        91.05258898
  PAW double counting   =     13648.24062903   -13211.72471397
  entropy T*S    EENTRO =        -0.00000000
  eigenvalues    EBANDS =      -848.09227564
  atomic energy  EATOM  =     15084.04723528
  Solvation  Ediel_sol  =         0.00000000
  ---------------------------------------------------
  free energy    TOTEN  =       -66.08456550 eV

  energy without entropy =      -66.08456550  energy(sigma->0) =      -66.08456550


--------------------------------------------------------------------------------------------------------




--------------------------------------- Iteration      1(   7)  ---------------------------------------


    POTLOK:  cpu time      0.0574: real time      0.0575
    SETDIJ:  cpu time      0.1708: real time      0.1708
    EDDIAG:  cpu time      2.9833: real time      2.9842
  RMM-DIIS:  cpu time      7.8809: real time      7.8855
    ORTHCH:  cpu time      0.2599: real time      0.2599
       DOS:  cpu time      0.0030: real time      0.0030
    CHARGE:  cpu time      0.7928: real time      0.7930
    MIXING:  cpu time      0.0010: real time      0.0010
    --------------------------------------------
      LOOP:  cpu time     12.1492: real time     12.1550

 eigenvalue-minimisations  : 22751
 total energy-change (2. order) :-0.1440481E-02  (-0.1827780E+00)
 number of electron     160.0000002 magnetization 
 augmentation part       35.0664837 magnetization 

 Broyden mixing:
  rms(total) = 0.16058E+00    rms(broyden)= 0.16058E+00
  rms(prec ) = 0.19938E+00
  weight for this iteration     100.00

 eigenvalues of (default mixing * dielectric matrix)
  average eigenvalue GAMMA=   2.0397
  1.5224  2.5570

 Free energy of the ion-electron system (eV)
  ---------------------------------------------------
  alpha Z        PSCENC =       285.96894664
  Ewald energy   TEWEN  =    -11083.98599801
  -Hartree energ DENC   =     -4016.02270851
  -exchange      EXHF   =         0.00000000
  -V(xc)+E(xc)   XCENC  =        91.26864532
  PAW double counting   =     14415.89088198   -13977.42078966
  entropy T*S    EENTRO =        -0.00000000
  eigenvalues    EBANDS =      -865.83221903
  atomic energy  EATOM  =     15084.04723528
  Solvation  Ediel_sol  =         0.00000000
  ---------------------------------------------------
  free energy    TOTEN  =       -66.08600598 eV

  energy without entropy =      -66.08600598  energy(sigma->0) =      -66.08600598


--------------------------------------------------------------------------------------------------------




--------------------------------------- Iteration      1(   8)  ---------------------------------------


    POTLOK:  cpu time      0.0419: real time      0.0587
    SETDIJ:  cpu time      0.1718: real time      0.1718
    EDDIAG:  cpu time      2.9824: real time      2.9831
  RMM-DIIS:  cpu time      7.7807: real time      7.7852
    ORTHCH:  cpu time      0.2583: real time      0.2583
       DOS:  cpu time      0.0029: real time      0.0029
    CHARGE:  cpu time      0.7947: real time      0.7954
    MIXING:  cpu time      0.0010: real time      0.0010
    --------------------------------------------
      LOOP:  cpu time     12.0337: real time     12.0564

 eigenvalue-minimisations  : 22283
 total energy-change (2. order) : 0.2005328E-01  (-0.3672328E-01)
 number of electron     160.0000002 magnetization 
 augmentation part       34.9053099 magnetization 

 Broyden mixing:
  rms(total) = 0.45776E-01    rms(broyden)= 0.45775E-01
  rms(prec ) = 0.79917E-01
  weight for this iteration     100.00

 eigenvalues of (default mixing * dielectric matrix)
  average eigenvalue GAMMA=   1.7441
  2.3617  1.4352  1.4352

 Free energy of the ion-electron system (eV)
  ---------------------------------------------------
  alpha Z        PSCENC =       285.96894664
  Ewald energy   TEWEN  =    -11083.98599801
  -Hartree energ DENC   =     -4026.04025268
  -exchange      EXHF   =         0.00000000
  -V(xc)+E(xc)   XCENC  =        91.57423150
  PAW double counting   =     14787.20766592   -14351.38015479
  entropy T*S    EENTRO =        -0.00000000
  eigenvalues    EBANDS =      -853.45762656
  atomic energy  EATOM  =     15084.04723528
  Solvation  Ediel_sol  =         0.00000000
  ---------------------------------------------------
  free energy    TOTEN  =       -66.06595270 eV

  energy without entropy =      -66.06595270  energy(sigma->0) =      -66.06595270


--------------------------------------------------------------------------------------------------------




--------------------------------------- Iteration      1(   9)  ---------------------------------------


    POTLOK:  cpu time      0.0442: real time      0.0582
    SETDIJ:  cpu time      0.1715: real time      0.1715
    EDDIAG:  cpu time      3.0486: real time      3.0495
  RMM-DIIS:  cpu time      8.5789: real time      8.5840
    ORTHCH:  cpu time      0.2587: real time      0.2587
       DOS:  cpu time      0.0029: real time      0.0029
    CHARGE:  cpu time      0.7960: real time      0.7966
    MIXING:  cpu time      0.0010: real time      0.0010
    --------------------------------------------
      LOOP:  cpu time     12.9018: real time     12.9224

 eigenvalue-minimisations  : 24815
 total energy-change (2. order) : 0.1307630E-01  (-0.8303709E-02)
 number of electron     160.0000002 magnetization 
 augmentation part       34.9742022 magnetization 

 Broyden mixing:
  rms(total) = 0.35374E-01    rms(broyden)= 0.35374E-01
  rms(prec ) = 0.40459E-01
  weight for this iteration     100.00

 eigenvalues of (default mixing * dielectric matrix)
  average eigenvalue GAMMA=   1.6806
  2.5803  1.7402  1.7402  0.6617

 Free energy of the ion-electron system (eV)
  ---------------------------------------------------
  alpha Z        PSCENC =       285.96894664
  Ewald energy   TEWEN  =    -11083.98599801
  -Hartree energ DENC   =     -4019.76559988
  -exchange      EXHF   =         0.00000000
  -V(xc)+E(xc)   XCENC  =        91.45480993
  PAW double counting   =     14752.27021318   -14315.40485696
  entropy T*S    EENTRO =        -0.00000000
  eigenvalues    EBANDS =      -860.63762659
  atomic energy  EATOM  =     15084.04723528
  Solvation  Ediel_sol  =         0.00000000
  ---------------------------------------------------
  free energy    TOTEN  =       -66.05287640 eV

  energy without entropy =      -66.05287640  energy(sigma->0) =      -66.05287640


--------------------------------------------------------------------------------------------------------




--------------------------------------- Iteration      1(  10)  ---------------------------------------


    POTLOK:  cpu time      0.0458: real time      0.0585
    SETDIJ:  cpu time      0.1719: real time      0.1720
    EDDIAG:  cpu time      3.0034: real time      3.0045
  RMM-DIIS:  cpu time      8.7042: real time      8.7094
    ORTHCH:  cpu time      0.2586: real time      0.2586
       DOS:  cpu time      0.0030: real time      0.0030
    CHARGE:  cpu time      0.7928: real time      0.7934
    MIXING:  cpu time      0.0011: real time      0.0011
    --------------------------------------------
      LOOP:  cpu time     12.9808: real time     13.0004

 eigenvalue-minimisations  : 25049
 total energy-change (2. order) :-0.2829336E-02  (-0.2612036E-02)
 number of electron     160.0000002 magnetization 
 augmentation part       34.9818534 magnetization 

 Broyden mixing:
  rms(total) = 0.23639E-01    rms(broyden)= 0.23638E-01
  rms(prec ) = 0.36918E-01
  weight for this iteration     100.00

 eigenvalues of (default mixing * dielectric matrix)
  average eigenvalue GAMMA=   1.5176
  2.3877  1.8642  1.8642  0.7360  0.7360

 Free energy of the ion-electron system (eV)
[...]
     6.479482142 -0.000050411  6.478665833     0.077165858 -0.077173890  0.077176586
     6.479330049  6.478757295  0.000101648     0.077169480  0.077175497 -0.077178603

  length of vectors
     9.162293686  9.162794323  9.162751442     0.133667878  0.133666018  0.133670201


 FORCES acting on ions
    electron-ion (+dipol)            ewald-force                    non-local-force                 convergence-correction
 -----------------------------------------------------------------------------------------------
   0.848E+00 -.736E+00 0.115E+01   -.936E+00 0.853E+00 -.126E+01   0.873E-01 -.112E+00 0.110E+00   -.452E-05 0.531E-05 -.484E-05
   -.587E+00 0.941E+00 -.124E+00   0.673E+00 -.105E+01 0.777E-01   -.796E-01 0.106E+00 0.458E-01   -.156E-05 -.564E-05 0.209E-05
   -.262E+00 -.215E+00 -.173E+01   0.287E+00 0.225E+00 0.192E+01   -.241E-01 -.895E-02 -.178E+00   0.104E-05 0.429E-05 0.547E-05
   -.118E+00 0.144E+00 0.432E+00   0.151E+00 -.151E+00 -.444E+00   -.363E-01 0.444E-02 0.126E-01   0.341E-05 -.357E-05 -.478E-05
   -.805E+00 -.139E+00 0.437E+00   0.874E+00 0.167E+00 -.471E+00   -.615E-01 -.235E-01 0.323E-01   0.839E-07 -.584E-05 -.294E-05
   -.235E+00 0.612E-01 -.160E+01   0.256E+00 -.662E-01 0.177E+01   -.212E-01 0.194E-02 -.166E+00   0.201E-05 0.510E-05 0.732E-05
   -.296E+00 0.845E+00 0.391E+00   0.364E+00 -.944E+00 -.449E+00   -.668E-01 0.954E-01 0.520E-01   -.767E-06 -.582E-05 0.383E-05
   0.119E+01 -.996E+00 0.108E+01   -.133E+01 0.109E+01 -.119E+01   0.127E+00 -.905E-01 0.102E+00   -.187E-05 0.567E-05 -.610E-05
   0.560E+00 -.458E+00 -.452E+00   -.590E+00 0.471E+00 0.444E+00   0.239E-01 -.615E-02 0.263E-01   0.203E-06 -.565E-06 0.662E-06
   -.898E+00 0.291E+00 0.141E+01   0.929E+00 -.309E+00 -.146E+01   -.108E-01 0.205E-01 0.168E-01   0.388E-06 0.810E-06 -.103E-05
   0.528E+00 0.557E+00 -.512E+00   -.537E+00 -.576E+00 0.542E+00   -.365E-02 0.300E-02 -.243E-01   -.256E-06 -.684E-06 -.517E-06
   -.239E+00 -.392E+00 -.628E+00   0.236E+00 0.411E+00 0.651E+00   0.109E-01 -.113E-01 -.103E-01   -.307E-07 0.755E-06 0.698E-06
   0.474E+00 -.710E+00 -.721E+00   -.474E+00 0.729E+00 0.744E+00   -.146E-01 0.648E-03 -.809E-02   -.497E-06 0.840E-06 0.784E-06
   0.517E-01 0.521E+00 -.178E+00   -.630E-01 -.540E+00 0.209E+00   0.132E-01 0.794E-02 -.372E-01   -.194E-06 -.785E-06 -.607E-06
   -.533E+00 0.477E-01 0.822E+00   0.566E+00 -.665E-01 -.869E+00   -.284E-01 0.239E-01 0.356E-01   0.204E-06 0.816E-06 -.583E-06
   0.377E+00 0.257E+00 0.212E+00   -.408E+00 -.241E+00 -.217E+00   0.280E-01 -.320E-01 -.131E-02   0.273E-06 -.106E-05 0.600E-06
 -----------------------------------------------------------------------------------------------
   0.569E-01 0.201E-01 -.749E-02   -.144E-13 -.194E-15 0.387E-13   -.569E-01 -.201E-01 0.749E-02   -.209E-05 -.382E-06 0.534E-07


 POSITION                                       TOTAL-FORCE (eV/Angst)
 -----------------------------------------------------------------------------------
      3.24149      3.23995      3.23943        -0.001153      0.005080     -0.006147
      3.23780      6.48090      6.48131         0.006613     -0.006283     -0.000405
      6.48170      3.24276      6.47492         0.001043      0.001439      0.010448
      6.48277      6.47882      9.71426        -0.003235     -0.002271      0.001022
      6.47945      6.47584      3.23760         0.007492      0.004872     -0.002016
      6.48196      9.72298      6.47627         0.000321     -0.003027      0.007632
      9.71878      6.47971      6.48258         0.001605     -0.003523     -0.006430
      9.72508      9.72043      9.71731        -0.010937      0.004362     -0.004291
      6.48338      0.00155      6.47218        -0.006019      0.007108      0.018810
     -0.00459      3.23900      3.24833         0.020312      0.002245     -0.028303
      3.24588      0.00806      3.23790        -0.013139     -0.015736      0.005683
      3.24109      3.23602      6.47213         0.008207      0.008371      0.012932
      3.24566      3.23379     -0.00673        -0.014722      0.019161      0.014789
      3.24276      6.48558      3.24036         0.001895     -0.010928     -0.005911
      6.47845      3.23883      3.24526         0.004112      0.005066     -0.011734
      6.48282      6.48504      6.47758        -0.002395     -0.015935     -0.006078
 -----------------------------------------------------------------------------------
    total drift:                               -0.000010     -0.000005      0.000000


--------------------------------------------------------------------------------------------------------



  FREE ENERGIE OF THE ION-ELECTRON SYSTEM (eV)
  ---------------------------------------------------
  free  energy   TOTEN  =       -66.05350243 eV

  energy  without entropy=      -66.05350243  energy(sigma->0) =      -66.05350243

 d Force =-0.5585318E-03[-0.196E-02, 0.844E-03]  d Energy =-0.5580694E-03-0.462E-06
 d Force =-0.2700625E-01[-0.385E-01,-0.155E-01]  d Ewald  =-0.2700978E-01 0.354E-05


--------------------------------------------------------------------------------------------------------


    POTLOK:  cpu time      0.2017: real time      0.2017


--------------------------------------------------------------------------------------------------------


    OFIELD:  cpu time      0.0000: real time      0.0000


--------------------------------------------------------------------------------------------------------


    OFIELD:  cpu time      0.0000: real time      0.0000

  ML FORCE on cell =-STRESS in cart. coord. units (eV/cell)
  Direction    XX          YY          ZZ          XY          YZ          ZX
  --------------------------------------------------------------------------------------
  Total:     -2.53496    -2.53552    -2.53567     0.00012    -0.00005    -0.00011
  in kB      -7.46691    -7.46856    -7.46899     0.00035    -0.00014    -0.00033
  external pressure =       -7.47 kB  Pullay stress =        0.00 kB

  kinetic pressure (ideal gas correction) =      0.00 kB
  total pressure  =     -7.47 kB
  Total+kin.    -7.467      -7.469      -7.469       0.000      -0.000      -0.000
  volume of cell :      543.93
      direct lattice vectors                 reciprocal lattice vectors
     0.000017202  6.478841760  6.478598231    -0.077167874  0.077173485  0.077178197
     6.479482142 -0.000050411  6.478665833     0.077165858 -0.077173890  0.077176586
     6.479330049  6.478757295  0.000101648     0.077169480  0.077175497 -0.077178603

  length of vectors
     9.162293686  9.162794323  9.162751442     0.133667878  0.133666018  0.133670201


  POSITION                                       TOTAL-FORCE (eV/Angst) (ML)
 -----------------------------------------------------------------------------------
      3.24410      3.23808      3.24147        -0.000262      0.000804     -0.000078
      3.23893      6.48308      6.48070        -0.000011     -0.000096     -0.001196
      6.48133      3.24108      6.47244        -0.000069     -0.000500      0.000242
      6.48136      6.48033      9.71618         0.000784      0.000238      0.000483
      6.47981      6.47901      3.23841        -0.000768      0.000146     -0.000045
      6.48141      9.72053      6.47304        -0.000058      0.000129      0.000381
      9.71904      6.48252      6.48137         0.000598     -0.000104      0.000303
      9.72533      9.71754      9.71980        -0.000215     -0.000617     -0.000097
      6.48143      0.00112      6.47521        -0.001557      0.003781      0.003107
      0.00020      3.24024      3.24071         0.001177     -0.002431     -0.004282
      3.24313      0.00309      3.23922        -0.002857      0.000425      0.001397
      3.24107      3.24004      6.47667         0.003849     -0.001314     -0.000475
      3.24331      3.23892     -0.00206        -0.004079      0.001987      0.001140
      3.24154      6.48129      3.24045         0.002557     -0.001057     -0.001926
      6.48139      3.24009      3.23920        -0.000698      0.002762      0.003532
      6.48111      6.48228      6.47790         0.001610     -0.004153     -0.002486
 -----------------------------------------------------------------------------------
    total drift:                                0.000000      0.000000     -0.000000


--------------------------------------------------------------------------------------------------------



  ML FREE ENERGIE OF THE ION-ELECTRON SYSTEM (eV)
  ---------------------------------------------------
  free  energy ML TOTEN  =       -66.05386191 eV

  ML energy  without entropy=      -66.05386191  ML energy(sigma->0) =      -66.05386191

     LOOP+:  cpu time    246.7687: real time    247.1261


--------------------------------------------------------------------------------------------------------


    OFIELD:  cpu time      0.0000: real time      0.0000

  ML FORCE on cell =-STRESS in cart. coord. units (eV/cell)
  Direction    XX          YY          ZZ          XY          YZ          ZX
  --------------------------------------------------------------------------------------
  Total:     -2.53493    -2.53549    -2.53564     0.00012    -0.00004    -0.00011
  in kB      -7.46682    -7.46848    -7.46893     0.00035    -0.00013    -0.00033
  external pressure =       -7.47 kB  Pullay stress =        0.00 kB

  kinetic pressure (ideal gas correction) =      0.00 kB
  total pressure  =     -7.47 kB
  Total+kin.    -7.467      -7.468      -7.469       0.000      -0.000      -0.000
  volume of cell :      543.93
      direct lattice vectors                 reciprocal lattice vectors
     0.000017202  6.478841760  6.478598231    -0.077167874  0.077173485  0.077178197
     6.479482142 -0.000050411  6.478665833     0.077165858 -0.077173890  0.077176586
     6.479330049  6.478757295  0.000101648     0.077169480  0.077175497 -0.077178603

  length of vectors
     9.162293686  9.162794323  9.162751442     0.133667878  0.133666018  0.133670201


  POSITION                                       TOTAL-FORCE (eV/Angst) (ML)
 -----------------------------------------------------------------------------------
      3.24422      3.23800      3.24156        -0.000271      0.000791     -0.000098
      3.23898      6.48318      6.48067        -0.000008     -0.000115     -0.001147
      6.48131      3.24100      6.47232        -0.000063     -0.000468      0.000268
      6.48130      6.48039      9.71627         0.000754      0.000216      0.000456
      6.47982      6.47916      3.23845        -0.000729      0.000128     -0.000051
      6.48138      9.72042      6.47289        -0.000055      0.000132      0.000396
      9.71905      6.48265      6.48131         0.000574     -0.000123      0.000286
      9.72535      9.71741      9.71991        -0.000227     -0.000569     -0.000115
      6.48135      0.00110      6.47535        -0.001477      0.003642      0.002941
      0.00042      3.24030      3.24036         0.001089     -0.002351     -0.004019
      3.24300      0.00287      3.23928        -0.002706      0.000460      0.001339
      3.24107      3.24022      6.47687         0.003690     -0.001307     -0.000505
      3.24320      3.23915     -0.00185        -0.003878      0.001844      0.001036
      3.24148      6.48109      3.24045         0.002463     -0.000955     -0.001833
      6.48152      3.24015      3.23892        -0.000701      0.002607      0.003442
      6.48103      6.48215      6.47791         0.001545     -0.003933     -0.002398
 -----------------------------------------------------------------------------------
    total drift:                               -0.000000      0.000000     -0.000000


--------------------------------------------------------------------------------------------------------



  ML FREE ENERGIE OF THE ION-ELECTRON SYSTEM (eV)
  ---------------------------------------------------
  free  energy ML TOTEN  =       -66.05386444 eV

  ML energy  without entropy=      -66.05386444  ML energy(sigma->0) =      -66.05386444

     LOOP+:  cpu time      0.0061: real time      0.0362


--------------------------------------------------------------------------------------------------------


    OFIELD:  cpu time      0.0000: real time      0.0000

  ML FORCE on cell =-STRESS in cart. coord. units (eV/cell)
  Direction    XX          YY          ZZ          XY          YZ          ZX
  --------------------------------------------------------------------------------------
  Total:     -2.53490    -2.53546    -2.53562     0.00012    -0.00004    -0.00011
  in kB      -7.46673    -7.46838    -7.46886     0.00034    -0.00013    -0.00033
  external pressure =       -7.47 kB  Pullay stress =        0.00 kB

  kinetic pressure (ideal gas correction) =      0.00 kB
  total pressure  =     -7.47 kB
  Total+kin.    -7.467      -7.468      -7.469       0.000      -0.000      -0.000
  volume of cell :      543.93
      direct lattice vectors                 reciprocal lattice vectors
     0.000017202  6.478841760  6.478598231    -0.077167874  0.077173485  0.077178197
     6.479482142 -0.000050411  6.478665833     0.077165858 -0.077173890  0.077176586
     6.479330049  6.478757295  0.000101648     0.077169480  0.077175497 -0.077178603

  length of vectors
     9.162293686  9.162794323  9.162751442     0.133667878  0.133666018  0.133670201


  POSITION                                       TOTAL-FORCE (eV/Angst) (ML)
 -----------------------------------------------------------------------------------
      3.24436      3.23790      3.24166        -0.000281      0.000777     -0.000119
      3.23904      6.48329      6.48064        -0.000005     -0.000136     -0.001092
      6.48129      3.24091      6.47220        -0.000058     -0.000432      0.000296
      6.48123      6.48047      9.71637         0.000720      0.000191      0.000425
      6.47984      6.47932      3.23849        -0.000685      0.000108     -0.000057
      6.48135      9.72030      6.47272        -0.000050      0.000135      0.000414
      9.71907      6.48280      6.48125         0.000547     -0.000145      0.000267
      9.72536      9.71726      9.72004        -0.000240     -0.000515     -0.000135
      6.48125      0.00108      6.47550        -0.001388      0.003486      0.002755
      0.00066      3.24036      3.23997         0.000990     -0.002261     -0.003723
      3.24286      0.00262      3.23934        -0.002536      0.000500      0.001274
      3.24107      3.24043      6.47711         0.003513     -0.001299     -0.000538
      3.24308      3.23941     -0.00161        -0.003653      0.001684      0.000921
      3.24142      6.48087      3.24045         0.002358     -0.000840     -0.001728
      6.48167      3.24021      3.23862        -0.000704      0.002434      0.003342
      6.48094      6.48201      6.47793         0.001473     -0.003686     -0.002300
 -----------------------------------------------------------------------------------
    total drift:                               -0.000000      0.000000     -0.000000


--------------------------------------------------------------------------------------------------------



  ML FREE ENERGIE OF THE ION-ELECTRON SYSTEM (eV)
  ---------------------------------------------------
  free  energy ML TOTEN  =       -66.05386692 eV

  ML energy  without entropy=      -66.05386692  ML energy(sigma->0) =      -66.05386692

     LOOP+:  cpu time      0.0060: real time      0.0280


--------------------------------------------------------------------------------------------------------


    OFIELD:  cpu time      0.0000: real time      0.0000

  ML FORCE on cell =-STRESS in cart. coord. units (eV/cell)
  Direction    XX          YY          ZZ          XY          YZ          ZX
  --------------------------------------------------------------------------------------
  Total:     -2.53489    -2.53545    -2.53561     0.00012    -0.00004    -0.00011
  in kB      -7.46669    -7.46834    -7.46882     0.00034    -0.00012    -0.00034
  external pressure =       -7.47 kB  Pullay stress =        0.00 kB

  kinetic pressure (ideal gas correction) =      0.00 kB
  total pressure  =     -7.47 kB
  Total+kin.    -7.467      -7.468      -7.469       0.000      -0.000      -0.000
  volume of cell :      543.93
      direct lattice vectors                 reciprocal lattice vectors
     0.000017202  6.478841760  6.478598231    -0.077167874  0.077173485  0.077178197
     6.479482142 -0.000050411  6.478665833     0.077165858 -0.077173890  0.077176586
     6.479330049  6.478757295  0.000101648     0.077169480  0.077175497 -0.077178603

  length of vectors
     9.162293686  9.162794323  9.162751442     0.133667878  0.133666018  0.133670201


  POSITION                                       TOTAL-FORCE (eV/Angst) (ML)
 -----------------------------------------------------------------------------------
      3.24442      3.23786      3.24172        -0.000286      0.000769     -0.000130
      3.23906      6.48335      6.48063        -0.000003     -0.000146     -0.001065
      6.48128      3.24087      6.47213        -0.000055     -0.000414      0.000311
      6.48119      6.48051      9.71642         0.000703      0.000178      0.000409
      6.47985      6.47940      3.23851        -0.000663      0.000099     -0.000060
      6.48134      9.72023      6.47264        -0.000048      0.000137      0.000423
      9.71907      6.48287      6.48122         0.000534     -0.000156      0.000258
      9.72537      9.71719      9.72010        -0.000247     -0.000488     -0.000144
      6.48120      0.00107      6.47558        -0.001344      0.003407      0.002662
      0.00078      3.24039      3.23978         0.000940     -0.002216     -0.003576
      3.24279      0.00249      3.23938        -0.002452      0.000519      0.001241
      3.24107      3.24053      6.47722         0.003424     -0.001295     -0.000555
      3.24302      3.23955     -0.00149        -0.003540      0.001604      0.000863
      3.24139      6.48077      3.24046         0.002305     -0.000783     -0.001676
      6.48175      3.24024      3.23846        -0.000705      0.002348      0.003291
      6.48090      6.48194      6.47794         0.001437     -0.003563     -0.002251
 -----------------------------------------------------------------------------------
    total drift:                                0.000000     -0.000000     -0.000000


--------------------------------------------------------------------------------------------------------



  ML FREE ENERGIE OF THE ION-ELECTRON SYSTEM (eV)
  ---------------------------------------------------
  free  energy ML TOTEN  =       -66.05386802 eV

  ML energy  without entropy=      -66.05386802  ML energy(sigma->0) =      -66.05386802

     LOOP+:  cpu time      0.0059: real time      0.0274


--------------------------------------------------------------------------------------------------------


     LOOP+:  cpu time      0.0034: real time      0.0249

 total amount of memory used by VASP MPI-rank0    86597. kBytes
=======================================================================

   base      :      30000. kBytes
   nonl-proj :      28870. kBytes
   fftplans  :       4898. kBytes
   grid      :       3203. kBytes
   one-center:         15. kBytes
   wavefun   :      19611. kBytes

  
  
 General timing and accounting informations for this job:
 ========================================================
  
                  Total CPU time used (sec):      699.517
                            User time (sec):      683.878
                          System time (sec):       15.639
                         Elapsed time (sec):      700.633
  
                   Maximum memory used (kb):      370132.
                   Average memory used (kb):          N/A
  
                          Minor page faults:       432682
                          Major page faults:          802
                 Voluntary context switches:         5596
