<?xml version="1.0" encoding="ISO-8859-1"?>
<modeling>
 <generator>
  <i name="program" type="string">vasp </i>
  <i name="version" type="string">6.3.0  </i>
  <i name="subversion" type="string">20Jan22 (build Feb 21 2022 11:18:28) complex                          parallel </i>
  <i name="platform" type="string">CrayXC_GCC_OMP </i>
  <i name="date" type="string">2023 09 25 </i>
  <i name="time" type="string">20:35:16 </i>
 </generator>
 <incar>
  <i type="int" name="ISTART">     1</i>
  <i type="string" name="PREC">Accurate  (Precision level)</i>
  <i type="string" name="ALGO">FAST      (SCF minimisation algorithm</i>
  <i type="logical" name="ADDGRID"> T  </i>
  <i type="int" name="ISPIN">     1</i>
  <i type="int" name="INIWAV">     1</i>
  <i type="int" name="NELM">   500</i>
  <i type="int" name="NELMIN">     5</i>
  <i type="int" name="IBRION">     2</i>
  <i name="EDIFF">      0.00000001</i>
  <i name="EDIFFG">     -0.00000010</i>
  <i type="int" name="NSW">   200</i>
  <i type="int" name="ISIF">     2</i>
  <i type="int" name="ISYM">     2</i>
  <i type="int" name="NBLOCK">     1</i>
  <i name="ENMAX">    600.00000000</i>
  <i type="int" name="NEDOS">  1000</i>
  <i type="logical" name="LREAL"> F  </i>
  <i type="logical" name="LPLANE"> T  </i>
  <i type="int" name="ISMEAR">     0</i>
  <i name="SIGMA">      0.01000000</i>
  <i type="int" name="NWRITE">     2</i>
  <i type="int" name="LMAXMIX">     4</i>
  <i type="int" name="LORBIT">    11</i>
  <i type="int" name="ICORELEVEL">     1</i>
  <i type="string" name="GGA">PS     (PBEsol exchange-correlation)</i>
 </incar>
 <primitive_cell>
  <structure name="primitive_cell" >
   <crystal>
    <varray name="basis" >
     <v>       0.00000000       6.41441522       6.41441522 </v>
     <v>       6.41441522       0.00000000       6.41441522 </v>
     <v>       6.41441522       6.41441522       0.00000000 </v>
    </varray>
    <i name="volume">    527.83866984 </i>
    <varray name="rec_basis" >
     <v>      -0.07794943       0.07794943       0.07794943 </v>
     <v>       0.07794943      -0.07794943       0.07794943 </v>
     <v>       0.07794943       0.07794943      -0.07794943 </v>
    </varray>
   </crystal>
   <varray name="positions" >
    <v>       0.24859428       0.25144069       0.25029412 </v>
    <v>       0.75121883       0.24990423       0.24995270 </v>
    <v>       0.24974603       0.74957542       0.25054301 </v>
    <v>       0.75068377       0.74943573       0.24905031 </v>
    <v>       0.24984131       0.24986265       0.75087769 </v>
    <v>       0.74917214       0.24974251       0.75002643 </v>
    <v>       0.25020280       0.74840766       0.75028821 </v>
    <v>       0.74998577       0.75060848       0.74905670 </v>
    <v>       0.99985281       0.00089526       0.00045304 </v>
    <v>       0.49948385       0.99976920       0.00064355 </v>
    <v>       0.99953963       0.50038148       0.00034469 </v>
    <v>       0.50045390       0.50065763       0.99965620 </v>
    <v>       0.99992529       0.00041396       0.50016771 </v>
    <v>       0.50036506       0.99947814       0.50077689 </v>
    <v>       0.99957831       0.49947040       0.50076889 </v>
    <v>       0.49979694       0.49963581       0.50086376 </v>
   </varray>
  </structure>
  <varray name="primitive_index" >
   <v type="int" >        1 </v>
   <v type="int" >        2 </v>
   <v type="int" >        3 </v>
   <v type="int" >        4 </v>
   <v type="int" >        5 </v>
   <v type="int" >        6 </v>
   <v type="int" >        7 </v>
   <v type="int" >        8 </v>
   <v type="int" >        9 </v>
   <v type="int" >       10 </v>
   <v type="int" >       11 </v>
   <v type="int" >       12 </v>
   <v type="int" >       13 </v>
   <v type="int" >       14 </v>
   <v type="int" >       15 </v>
   <v type="int" >       16 </v>
  </varray>
 </primitive_cell>
 <kpoints>
  <generation param="Gamma">
   <v type="int" name="divisions">       6        6        6 </v>
   <v name="usershift">      0.00000000       0.00000000       0.00000000 </v>
   <v name="genvec1">      0.16666667      -0.00000000       0.00000000 </v>
   <v name="genvec2">     -0.00000000       0.16666667      -0.00000000 </v>
   <v name="genvec3">      0.00000000       0.00000000       0.16666667 </v>
   <v name="shift">      0.00000000       0.00000000       0.00000000 </v>
  </generation>
  <varray name="kpointlist" >
   <v>       0.00000000       0.00000000       0.00000000 </v>
   <v>       0.16666667       0.00000000       0.00000000 </v>
   <v>       0.00000000       0.16666667       0.00000000 </v>
   <v>       0.00000000       0.00000000       0.16666667 </v>
   <v>       0.16666667       0.16666667       0.16666667 </v>
   <v>       0.33333333       0.00000000       0.00000000 </v>
   <v>       0.00000000       0.33333333       0.00000000 </v>
   <v>       0.00000000       0.00000000       0.33333333 </v>
   <v>       0.33333333       0.33333333       0.33333333 </v>
   <v>       0.50000000       0.00000000       0.00000000 </v>
   <v>       0.00000000       0.50000000       0.00000000 </v>
   <v>       0.00000000       0.00000000       0.50000000 </v>
   <v>       0.50000000       0.50000000       0.50000000 </v>
   <v>       0.16666667       0.16666667       0.00000000 </v>
   <v>       0.00000000       0.16666667       0.16666667 </v>
   <v>       0.16666667       0.00000000       0.16666667 </v>
   <v>       0.33333333       0.16666667       0.00000000 </v>
   <v>       0.00000000       0.33333333       0.16666667 </v>
   <v>       0.16666667       0.00000000       0.33333333 </v>
   <v>       0.16666667       0.16666667      -0.16666667 </v>
   <v>       0.33333333       0.16666667       0.33333333 </v>
   <v>       0.16666667       0.33333333       0.00000000 </v>
   <v>       0.16666667      -0.16666667      -0.16666667 </v>
   <v>       0.33333333       0.33333333       0.16666667 </v>
   <v>       0.00000000       0.16666667       0.33333333 </v>
   <v>      -0.16666667       0.16666667      -0.16666667 </v>
   <v>       0.16666667       0.33333333       0.33333333 </v>
   <v>       0.33333333       0.00000000       0.16666667 </v>
   <v>       0.50000000       0.16666667       0.00000000 </v>
   <v>       0.00000000       0.50000000       0.16666667 </v>
   <v>       0.16666667       0.00000000       0.50000000 </v>
   <v>       0.16666667       0.16666667      -0.33333333 </v>
   <v>       0.50000000       0.33333333       0.50000000 </v>
   <v>       0.16666667       0.50000000       0.00000000 </v>
   <v>       0.33333333      -0.16666667      -0.16666667 </v>
   <v>       0.50000000       0.50000000       0.33333333 </v>
   <v>       0.00000000       0.16666667       0.50000000 </v>
   <v>      -0.16666667       0.33333333      -0.16666667 </v>
   <v>       0.33333333       0.50000000       0.50000000 </v>
   <v>       0.50000000       0.00000000       0.16666667 </v>
   <v>      -0.33333333       0.16666667       0.00000000 </v>
   <v>       0.00000000      -0.33333333       0.16666667 </v>
   <v>       0.16666667       0.00000000      -0.33333333 </v>
   <v>       0.16666667       0.16666667       0.50000000 </v>
   <v>      -0.33333333       0.50000000      -0.33333333 </v>
   <v>       0.16666667      -0.33333333       0.00000000 </v>
   <v>       0.50000000      -0.16666667      -0.16666667 </v>
   <v>      -0.33333333      -0.33333333       0.50000000 </v>
   <v>       0.00000000       0.16666667      -0.33333333 </v>
   <v>      -0.16666667       0.50000000      -0.16666667 </v>
   <v>       0.50000000      -0.33333333      -0.33333333 </v>
   <v>      -0.33333333       0.00000000       0.16666667 </v>
   <v>      -0.16666667       0.16666667       0.00000000 </v>
   <v>       0.00000000      -0.16666667       0.16666667 </v>
   <v>       0.16666667       0.00000000      -0.16666667 </v>
   <v>       0.16666667       0.16666667       0.33333333 </v>
   <v>      -0.16666667      -0.33333333      -0.16666667 </v>
   <v>      -0.33333333      -0.16666667      -0.16666667 </v>
   <v>       0.33333333       0.33333333       0.00000000 </v>
   <v>       0.00000000       0.33333333       0.33333333 </v>
   <v>       0.33333333       0.00000000       0.33333333 </v>
   <v>       0.50000000       0.33333333       0.00000000 </v>
   <v>       0.00000000       0.50000000       0.33333333 </v>
   <v>       0.33333333       0.00000000       0.50000000 </v>
   <v>       0.33333333       0.33333333      -0.16666667 </v>
   <v>       0.50000000       0.16666667       0.50000000 </v>
   <v>       0.33333333       0.50000000       0.00000000 </v>
   <v>       0.16666667      -0.33333333      -0.33333333 </v>
   <v>       0.50000000       0.50000000       0.16666667 </v>
   <v>       0.00000000       0.33333333       0.50000000 </v>
   <v>      -0.33333333       0.16666667      -0.33333333 </v>
   <v>       0.16666667       0.50000000       0.50000000 </v>
   <v>       0.50000000       0.00000000       0.33333333 </v>
   <v>      -0.33333333       0.33333333       0.00000000 </v>
   <v>       0.00000000      -0.33333333       0.33333333 </v>
   <v>       0.33333333       0.00000000      -0.33333333 </v>
   <v>       0.33333333       0.33333333      -0.33333333 </v>
   <v>      -0.33333333       0.33333333      -0.33333333 </v>
   <v>       0.33333333      -0.33333333      -0.33333333 </v>
   <v>       0.50000000       0.50000000       0.00000000 </v>
   <v>       0.00000000       0.50000000       0.50000000 </v>
   <v>       0.50000000       0.00000000       0.50000000 </v>
   <v>       0.50000000       0.33333333       0.16666667 </v>
   <v>       0.16666667       0.50000000       0.33333333 </v>
   <v>       0.33333333       0.16666667       0.50000000 </v>
   <v>       0.33333333       0.16666667      -0.16666667 </v>
   <v>       0.50000000       0.16666667       0.33333333 </v>
   <v>       0.16666667      -0.33333333      -0.16666667 </v>
   <v>       0.16666667       0.33333333      -0.16666667 </v>
   <v>       0.16666667      -0.16666667      -0.33333333 </v>
   <v>       0.33333333       0.50000000       0.16666667 </v>
   <v>      -0.16666667       0.16666667      -0.33333333 </v>
   <v>      -0.33333333       0.16666667      -0.16666667 </v>
   <v>       0.16666667       0.33333333       0.50000000 </v>
   <v>      -0.33333333       0.33333333       0.16666667 </v>
   <v>       0.16666667      -0.33333333       0.33333333 </v>
   <v>       0.33333333       0.16666667      -0.33333333 </v>
   <v>      -0.33333333       0.33333333       0.50000000 </v>
   <v>       0.16666667       0.50000000      -0.16666667 </v>
   <v>       0.33333333      -0.16666667      -0.33333333 </v>
   <v>       0.50000000      -0.33333333       0.33333333 </v>
   <v>      -0.16666667       0.16666667       0.50000000 </v>
   <v>      -0.33333333       0.33333333      -0.16666667 </v>
   <v>       0.33333333       0.50000000      -0.33333333 </v>
   <v>       0.50000000      -0.16666667       0.16666667 </v>
   <v>      -0.16666667      -0.33333333       0.33333333 </v>
   <v>      -0.33333333       0.50000000       0.16666667 </v>
   <v>       0.16666667      -0.33333333       0.50000000 </v>
   <v>       0.50000000       0.16666667      -0.33333333 </v>
   <v>       0.50000000       0.33333333      -0.16666667 </v>
   <v>      -0.33333333       0.16666667       0.50000000 </v>
   <v>       0.16666667       0.50000000      -0.33333333 </v>
  </varray>
  <varray name="weights" >
   <v>       0.00462963 </v>
   <v>       0.00925926 </v>
   <v>       0.00925926 </v>
   <v>       0.00925926 </v>
   <v>       0.00925926 </v>
   <v>       0.00925926 </v>
   <v>       0.00925926 </v>
   <v>       0.00925926 </v>
   <v>       0.00925926 </v>
   <v>       0.00462963 </v>
   <v>       0.00462963 </v>
   <v>       0.00462963 </v>
   <v>       0.00462963 </v>
   <v>       0.00925926 </v>
   <v>       0.00925926 </v>
   <v>       0.00925926 </v>
   <v>       0.00925926 </v>
   <v>       0.00925926 </v>
   <v>       0.00925926 </v>
   <v>       0.00925926 </v>
   <v>       0.00925926 </v>
   <v>       0.00925926 </v>
   <v>       0.00925926 </v>
   <v>       0.00925926 </v>
   <v>       0.00925926 </v>
   <v>       0.00925926 </v>
   <v>       0.00925926 </v>
   <v>       0.00925926 </v>
   <v>       0.00925926 </v>
   <v>       0.00925926 </v>
   <v>       0.00925926 </v>
   <v>       0.00925926 </v>
   <v>       0.00925926 </v>
   <v>       0.00925926 </v>
   <v>       0.00925926 </v>
   <v>       0.00925926 </v>
   <v>       0.00925926 </v>
   <v>       0.00925926 </v>
   <v>       0.00925926 </v>
   <v>       0.00925926 </v>
   <v>       0.00925926 </v>
   <v>       0.00925926 </v>
   <v>       0.00925926 </v>
   <v>       0.00925926 </v>
   <v>       0.00925926 </v>
   <v>       0.00925926 </v>
   <v>       0.00925926 </v>
   <v>       0.00925926 </v>
   <v>       0.00925926 </v>
   <v>       0.00925926 </v>
   <v>       0.00925926 </v>
   <v>       0.00925926 </v>
   <v>       0.00925926 </v>
   <v>       0.00925926 </v>
   <v>       0.00925926 </v>
   <v>       0.00925926 </v>
   <v>       0.00925926 </v>
   <v>       0.00925926 </v>
   <v>       0.00925926 </v>
   <v>       0.00925926 </v>
   <v>       0.00925926 </v>
   <v>       0.00925926 </v>
   <v>       0.00925926 </v>
   <v>       0.00925926 </v>
   <v>       0.00925926 </v>
   <v>       0.00925926 </v>
   <v>       0.00925926 </v>
   <v>       0.00925926 </v>
   <v>       0.00925926 </v>
   <v>       0.00925926 </v>
   <v>       0.00925926 </v>
   <v>       0.00925926 </v>
   <v>       0.00925926 </v>
   <v>       0.00925926 </v>
   <v>       0.00925926 </v>
   <v>       0.00925926 </v>
   <v>       0.00925926 </v>
   <v>       0.00925926 </v>
   <v>       0.00925926 </v>
   <v>       0.00462963 </v>
   <v>       0.00462963 </v>
   <v>       0.00462963 </v>
   <v>       0.00925926 </v>
   <v>       0.00925926 </v>
   <v>       0.00925926 </v>
   <v>       0.00925926 </v>
   <v>       0.00925926 </v>
   <v>       0.00925926 </v>
   <v>       0.00925926 </v>
   <v>       0.00925926 </v>
   <v>       0.00925926 </v>
   <v>       0.00925926 </v>
   <v>       0.00925926 </v>
   <v>       0.00925926 </v>
   <v>       0.00925926 </v>
   <v>       0.00925926 </v>
   <v>       0.00925926 </v>
   <v>       0.00925926 </v>
   <v>       0.00925926 </v>
   <v>       0.00925926 </v>
   <v>       0.00925926 </v>
   <v>       0.00925926 </v>
   <v>       0.00925926 </v>
   <v>       0.00925926 </v>
   <v>       0.00925926 </v>
   <v>       0.00925926 </v>
   <v>       0.00925926 </v>
   <v>       0.00925926 </v>
   <v>       0.00925926 </v>
   <v>       0.00925926 </v>
   <v>       0.00925926 </v>
   <v>       0.00925926 </v>
  </varray>
 </kpoints>
 <parameters>
  <separator name="general" >
   <i type="string" name="SYSTEM">unknown system</i>
   <i type="logical" name="LCOMPAT"> F  </i>
  </separator>
  <separator name="electronic" >
   <i type="string" name="PREC">accura</i>
   <i name="ENMAX">    600.00000000</i>
   <i name="ENAUG">    391.91400000</i>
   <i name="EDIFF">      0.00000001</i>
   <i type="int" name="IALGO">    68</i>
   <i type="int" name="IWAVPR">    11</i>
   <i type="int" name="NBANDS">    96</i>
   <i type="int" name="NBANDSLOW">    -1</i>
   <i type="int" name="NBANDSHIGH">    -1</i>
   <i name="NELECT">    160.00000000</i>
   <i type="int" name="TURBO">     0</i>
   <i type="int" name="IRESTART">     0</i>
   <i type="int" name="NREBOOT">     0</i>
   <i type="int" name="NMIN">     0</i>
   <i name="EREF">      0.00000000</i>
   <separator name="electronic smearing" >
    <i type="int" name="ISMEAR">     0</i>
    <i name="SIGMA">      0.01000000</i>
    <i name="KSPACING">      0.50000000</i>
    <i type="logical" name="KGAMMA"> T  </i>
    <i type="logical" name="KBLOWUP"> T  </i>
   </separator>
   <separator name="electronic projectors" >
    <i type="logical" name="LREAL"> F  </i>
    <v name="ROPT">      0.00000000      0.00000000</v>
    <i type="int" name="LMAXPAW">  -100</i>
    <i type="int" name="LMAXMIX">     4</i>
    <i type="logical" name="NLSPLINE"> F  </i>
   </separator>
   <separator name="electronic startup" >
    <i type="int" name="ISTART">     0</i>
    <i type="int" name="ICHARG">     2</i>
    <i type="int" name="INIWAV">     1</i>
   </separator>
   <separator name="electronic spin" >
    <i type="int" name="ISPIN">     1</i>
    <i type="logical" name="LNONCOLLINEAR"> F  </i>
    <v name="MAGMOM">      1.00000000      1.00000000      1.00000000      1.00000000      1.00000000      1.00000000      1.00000000      1.00000000      1.00000000      1.00000000      1.00000000      1.00000000      1.00000000      1.00000000      1.00000000      1.00000000</v>
    <i name="NUPDOWN">     -1.00000000</i>
    <i type="logical" name="LSORBIT"> F  </i>
    <v name="SAXIS">      0.00000000      0.00000000      1.00000000</v>
    <i type="logical" name="LSPIRAL"> F  </i>
    <v name="QSPIRAL">      0.00000000      0.00000000      0.00000000</v>
    <i type="logical" name="LZEROZ"> F  </i>
   </separator>
   <separator name="electronic exchange-correlation" >
    <i type="logical" name="LASPH"> F  </i>
    <i type="logical" name="LMETAGGA"> F  </i>
   </separator>
   <separator name="electronic convergence" >
    <i type="int" name="NELM">   500</i>
    <i type="int" name="NELMDL">     0</i>
    <i type="int" name="NELMIN">     5</i>
    <i name="ENINI">    600.00000000</i>
    <separator name="electronic convergence detail" >
     <i type="logical" name="LDIAG"> T  </i>
     <i type="logical" name="LSUBROT"> F  </i>
     <i name="WEIMIN">      0.00100000</i>
     <i name="EBREAK">      0.00000000</i>
     <i name="DEPER">      0.30000000</i>
     <i type="int" name="NRMM">     4</i>
     <i name="TIME">      0.40000000</i>
    </separator>
   </separator>
   <separator name="electronic mixer" >
    <i name="AMIX">      0.40000000</i>
    <i name="BMIX">      1.00000000</i>
    <i name="AMIN">      0.10000000</i>
    <i name="AMIX_MAG">      1.60000000</i>
    <i name="BMIX_MAG">      1.00000000</i>
    <separator name="electronic mixer details" >
     <i type="int" name="IMIX">     4</i>
     <i type="logical" name="MIXFIRST"> F  </i>
     <i type="int" name="MAXMIX">   -45</i>
     <i name="WC">    100.00000000</i>
     <i type="int" name="INIMIX">     1</i>
     <i type="int" name="MIXPRE">     1</i>
     <i type="int" name="MREMOVE">     5</i>
    </separator>
   </separator>
   <separator name="electronic dipolcorrection" >
    <i type="logical" name="LDIPOL"> F  </i>
    <i type="logical" name="LMONO"> F  </i>
    <i type="int" name="IDIPOL">     0</i>
    <i name="EPSILON">      1.00000000</i>
    <v name="DIPOL">   -100.00000000   -100.00000000   -100.00000000</v>
    <i name="EFIELD">      0.00000000</i>
   </separator>
  </separator>
  <separator name="grids" >
   <i type="int" name="NGX">    72</i>
   <i type="int" name="NGY">    72</i>
   <i type="int" name="NGZ">    72</i>
   <i type="int" name="NGXF">   144</i>
   <i type="int" name="NGYF">   144</i>
   <i type="int" name="NGZF">   144</i>
   <i type="logical" name="ADDGRID"> T  </i>
  </separator>
  <separator name="ionic" >
   <i type="int" name="NSW">   200</i>
   <i type="int" name="IBRION">     2</i>
   <i type="int" name="MDALGO">     0</i>
   <i type="int" name="ISIF">     2</i>
   <i name="PSTRESS">      0.00000000</i>
   <i name="EDIFFG">     -0.00000010</i>
   <i type="int" name="NFREE">     1</i>
   <i name="POTIM">      0.50000000</i>
   <i name="SMASS">     -3.00000000</i>
   <i name="SCALEE">      1.00000000</i>
  </separator>
  <separator name="ionic md" >
   <i name="TEBEG">      0.00010000</i>
   <i name="TEEND">      0.00010000</i>
   <i type="int" name="NBLOCK">     1</i>
   <i type="int" name="KBLOCK">   200</i>
   <i type="int" name="NPACO">   256</i>
   <i name="APACO">     10.00000000</i>
  </separator>
  <separator name="symmetry" >
   <i type="int" name="ISYM">     2</i>
   <i name="SYMPREC">      0.00001000</i>
  </separator>
  <separator name="dos" >
   <i type="int" name="LORBIT">    11</i>
   <v name="RWIGS">     -1.00000000     -1.00000000</v>
   <i type="int" name="NEDOS">  1000</i>
   <i name="EMIN">     10.00000000</i>
   <i name="EMAX">    -10.00000000</i>
   <i name="EFERMI">      0.00000000</i>
  </separator>
  <separator name="writing" >
   <i type="int" name="NWRITE">     2</i>
   <i type="logical" name="LWAVE"> T  </i>
   <i type="logical" name="LDOWNSAMPLE"> F  </i>
   <i type="logical" name="LCHARG"> T  </i>
   <i type="logical" name="LPARD"> F  </i>
   <i type="logical" name="LVTOT"> F  </i>
   <i type="logical" name="LVHAR"> F  </i>
   <i type="logical" name="LELF"> F  </i>
   <i type="logical" name="LOPTICS"> F  </i>
   <v name="STM">      0.00000000      0.00000000      0.00000000      0.00000000      0.00000000      0.00000000      0.00000000</v>
  </separator>
  <separator name="performance" >
   <i type="int" name="NPAR">     8</i>
   <i type="int" name="NSIM">     4</i>
   <i type="int" name="NBLK">    -1</i>
   <i type="logical" name="LPLANE"> T  </i>
   <i type="logical" name="LSCALAPACK"> T  </i>
   <i type="logical" name="LSCAAWARE"> F  </i>
   <i type="logical" name="LSCALU"> F  </i>
   <i type="logical" name="LASYNC"> F  </i>
   <i type="logical" name="LORBITALREAL"> F  </i>
  </separator>
  <separator name="miscellaneous" >
   <i type="int" name="IDIOT">     3</i>
   <i type="int" name="PHON_NSTRUCT">    -1</i>
   <i type="logical" name="LMUSIC"> F  </i>
   <v name="POMASS">    207.20000000    127.60000000</v>
   <v name="DARWINR">      0.00000000      0.00000000</v>
   <v name="DARWINV">      1.00000000      1.00000000</v>
   <i type="logical" name="LCORR"> T  </i>
  </separator>
  <i type="logical" name="GGA_COMPAT"> T  </i>
  <i type="logical" name="LBERRY"> F  </i>
  <i type="int" name="ICORELEVEL">     1</i>
  <i type="int" name="CLNT">     1</i>
  <i type="int" name="CLN">     1</i>
  <i type="int" name="CLL">     0</i>
  <i name="CLZ">      0.00000000</i>
  <i type="logical" name="LDAU"> F  </i>
  <i type="int" name="I_CONSTRAINED_M">     0</i>
  <separator name="electronic exchange-correlation" >
   <i type="string" name="GGA">PS</i>
   <i type="int" name="VOSKOWN">     0</i>
   <i type="logical" name="LHFCALC"> F  </i>
   <i type="string" name="PRECFOCK"></i>
   <i type="logical" name="LSYMGRAD"> F  </i>
   <i type="logical" name="LHFONE"> F  </i>
   <i type="logical" name="LRHFCALC"> F  </i>
   <i type="logical" name="LTHOMAS"> F  </i>
   <i type="logical" name="LMODELHF"> F  </i>
   <i type="logical" name="LFOCKACE"> F  </i>
   <i name="ENCUT4O">     -1.00000000</i>
   <i type="int" name="EXXOEP">     0</i>
   <i type="int" name="FOURORBIT">     0</i>
   <i name="AEXX">      0.00000000</i>
   <i name="HFALPHA">      0.00000000</i>
   <i name="MCALPHA">      0.00000000</i>
   <i name="ALDAX">      1.00000000</i>
   <i name="AGGAX">      1.00000000</i>
   <i name="ALDAC">      1.00000000</i>
   <i name="AGGAC">      1.00000000</i>
   <i type="int" name="NKREDX">     1</i>
   <i type="int" name="NKREDY">     1</i>
   <i type="int" name="NKREDZ">     1</i>
   <i type="logical" name="SHIFTRED"> F  </i>
   <i type="logical" name="ODDONLY"> F  </i>
   <i type="logical" name="EVENONLY"> F  </i>
   <i type="int" name="LMAXFOCK">     0</i>
   <i type="int" name="NMAXFOCKAE">     0</i>
   <i type="logical" name="LFOCKAEDFT"> F  </i>
   <i name="HFSCREEN">      0.00000000</i>
   <i name="HFSCREENC">      0.00000000</i>
   <i type="int" name="NBANDSGWLOW">     0</i>
  </separator>
  <separator name="vdW DFT" >
   <i type="logical" name="LUSE_VDW"> F  </i>
   <i name="Zab_VDW">     -0.84910000</i>
   <i name="PARAM1">      0.12340000</i>
   <i name="PARAM2">      1.00000000</i>
   <i name="PARAM3">      0.00000000</i>
  </separator>
  <separator name="model GW" >
   <i type="int" name="MODEL_GW">     0</i>
   <i name="MODEL_EPS0">     19.79395012</i>
   <i name="MODEL_ALPHA">      1.00000000</i>
  </separator>
  <separator name="linear response parameters" >
   <i type="logical" name="LEPSILON"> F  </i>
   <i type="logical" name="LRPA"> F  </i>
   <i type="logical" name="LNABLA"> F  </i>
   <i type="logical" name="LVEL"> F  </i>
   <i name="CSHIFT">      0.10000000</i>
   <i name="OMEGAMAX">     -1.00000000</i>
   <i name="DEG_THRESHOLD">      0.00200000</i>
   <i name="RTIME">     -0.10000000</i>
   <i name="WPLASMAI">      0.00000000</i>
   <v name="DFIELD">      0.00000000      0.00000000      0.00000000</v>
   <v name="WPLASMA">      0.00000000      0.00000000      0.00000000      0.00000000      0.00000000      0.00000000      0.00000000      0.00000000      0.00000000</v>
  </separator>
  <separator name="orbital magnetization" >
   <i type="logical" name="NUCIND"> F  </i>
   <v name="MAGPOS">      0.00000000      0.00000000      0.00000000</v>
   <i type="logical" name="LNICSALL"> T  </i>
   <i type="logical" name="ORBITALMAG"> F  </i>
   <i type="logical" name="LMAGBLOCH"> F  </i>
   <i type="logical" name="LCHIMAG"> F  </i>
   <i type="logical" name="LGAUGE"> T  </i>
   <i type="int" name="MAGATOM">     0</i>
   <v name="MAGDIPOL">      0.00000000      0.00000000      0.00000000</v>
   <v name="AVECCONST">      0.00000000      0.00000000      0.00000000</v>
  </separator>
  <separator name="response functions" >
   <i type="logical" name="LFINITE_TEMPERATURE"> F  </i>
   <i type="logical" name="LADDER"> F  </i>
   <i type="logical" name="LRPAFORCE"> F  </i>
   <i type="logical" name="LFXC"> F  </i>
   <i type="logical" name="LHARTREE"> T  </i>
   <i type="int" name="IBSE">     0</i>
   <v type="int" name="KPOINT">    -1     0     0     0</v>
   <i type="logical" name="LTCTC"> F  </i>
   <i type="logical" name="LTCTE"> F  </i>
   <i type="logical" name="LTETE"> F  </i>
   <i type="logical" name="LTRIPLET"> F  </i>
   <i type="logical" name="LFXCEPS"> F  </i>
   <i type="logical" name="LFXHEG"> F  </i>
   <i type="int" name="NATURALO">     2</i>
   <i type="logical" name="LHOLEGF"> F  </i>
   <i type="logical" name="L2ORDER"> F  </i>
   <i type="logical" name="LDMP1"> F  </i>
   <i type="logical" name="LMP2LT"> F  </i>
   <i type="logical" name="LSMP2LT"> F  </i>
   <i type="logical" name="LGWLF"> F  </i>
   <i name="ENCUTGW">     -2.00000000</i>
   <i name="ENCUTGWSOFT">     -2.00000000</i>
   <i name="ENCUTLF">     -1.00000000</i>
   <i type="logical" name="LESF_SPLINES"> F  </i>
   <i type="int" name="LMAXMP2">    -1</i>
   <i name="SCISSOR">      0.00000000</i>
   <i type="int" name="NOMEGA">     0</i>
   <i type="int" name="NOMEGAR">     0</i>
   <i type="int" name="NBANDSGW">    -1</i>
   <i type="int" name="NBANDSO">    -1</i>
   <i type="int" name="NBANDSV">    -1</i>
   <i type="int" name="NELMGW">     1</i>
   <i type="int" name="NELMHF">     1</i>
   <i type="int" name="DIM">     3</i>
   <i type="int" name="IESPILON">     4</i>
   <i type="int" name="ANTIRES">     0</i>
   <i name="OMEGAMAX">    -30.00000000</i>
   <i name="OMEGAMIN">    -30.00000000</i>
   <i name="OMEGATL">   -200.00000000</i>
   <i type="int" name="OMEGAGRID">     0</i>
   <i name="CSHIFT">     -0.10000000</i>
   <i type="logical" name="LSELFENERGY"> F  </i>
   <i type="logical" name="LSPECTRAL"> F  </i>
   <i type="logical" name="LSPECTRALGW"> F  </i>
   <i type="logical" name="LSINGLES"> F  </i>
   <i type="logical" name="LFERMIGW"> F  </i>
   <i type="logical" name="ODDONLYGW"> F  </i>
   <i type="logical" name="EVENONLYGW"> F  </i>
   <i type="int" name="NKREDLFX">     1</i>
   <i type="int" name="NKREDLFY">     1</i>
   <i type="int" name="NKREDLFZ">     1</i>
   <i type="int" name="MAXMEM">  2800</i>
   <i type="int" name="TELESCOPE">     0</i>
   <i type="int" name="NTAUPAR">    -1</i>
   <i type="int" name="NOMEGAPAR">    -1</i>
   <i name="DAMP_NEWTON">      0.80000001</i>
   <i name="LAMBDA">      1.00000000</i>
  </separator>
  <separator name="External order field" >
   <i name="OFIELD_KAPPA">      0.00000000</i>
   <v name="OFIELD_K">      0.00000000      0.00000000      0.00000000</v>
   <i name="OFIELD_Q6_NEAR">      0.00000000</i>
   <i name="OFIELD_Q6_FAR">      0.00000000</i>
   <i name="OFIELD_A">      0.00000000</i>
  </separator>
  <separator name="optional k-points parameters" >
   <i type="int" name="KPOINTS_OPT_MODE">     1</i>
   <i type="logical" name="LKPOINTS_OPT"> F  </i>
  </separator>
 </parameters>
 <atominfo>
  <atoms>      16 </atoms>
  <types>       2 </types>
  <array name="atoms" >
   <dimension dim="1">ion</dimension>
   <field type="string">element</field>
   <field type="int">atomtype</field>
   <set>
    <rc><c>Pb</c><c>   1</c></rc>
    <rc><c>Pb</c><c>   1</c></rc>
    <rc><c>Pb</c><c>   1</c></rc>
    <rc><c>Pb</c><c>   1</c></rc>
    <rc><c>Pb</c><c>   1</c></rc>
    <rc><c>Pb</c><c>   1</c></rc>
    <rc><c>Pb</c><c>   1</c></rc>
    <rc><c>Pb</c><c>   1</c></rc>
    <rc><c>Te</c><c>   2</c></rc>
    <rc><c>Te</c><c>   2</c></rc>
    <rc><c>Te</c><c>   2</c></rc>
    <rc><c>Te</c><c>   2</c></rc>
    <rc><c>Te</c><c>   2</c></rc>
    <rc><c>Te</c><c>   2</c></rc>
    <rc><c>Te</c><c>   2</c></rc>
    <rc><c>Te</c><c>   2</c></rc>
   </set>
  </array>
  <array name="atomtypes" >
   <dimension dim="1">type</dimension>
   <field type="int">atomspertype</field>
   <field type="string">element</field>
   <field>mass</field>
   <field>valence</field>
   <field type="string">pseudopotential</field>
   <set>
    <rc><c>   8</c><c>Pb</c><c>    207.20000000</c><c>     14.00000000</c><c>  PAW_PBE Pb_d 06Sep2000                </c></rc>
    <rc><c>   8</c><c>Te</c><c>    127.60000000</c><c>      6.00000000</c><c>  PAW_PBE Te 08Apr2002                  </c></rc>
   </set>
  </array>
 </atominfo>
 <structure name="initialpos" >
  <crystal>
   <varray name="basis" >
    <v>       0.00000000       6.41441522       6.41441522 </v>
    <v>       6.41441522       0.00000000       6.41441522 </v>
    <v>       6.41441522       6.41441522       0.00000000 </v>
   </varray>
   <i name="volume">    527.83866984 </i>
   <varray name="rec_basis" >
    <v>      -0.07794943       0.07794943       0.07794943 </v>
    <v>       0.07794943      -0.07794943       0.07794943 </v>
    <v>       0.07794943       0.07794943      -0.07794943 </v>
   </varray>
  </crystal>
  <varray name="positions" >
   <v>       0.24859428       0.25144069       0.25029412 </v>
   <v>       0.75121883       0.24990423       0.24995270 </v>
   <v>       0.24974603       0.74957542       0.25054301 </v>
   <v>       0.75068377       0.74943573       0.24905031 </v>
   <v>       0.24984131       0.24986265       0.75087769 </v>
   <v>       0.74917214       0.24974251       0.75002643 </v>
   <v>       0.25020280       0.74840766       0.75028821 </v>
   <v>       0.74998577       0.75060848       0.74905670 </v>
   <v>       0.99985281       0.00089526       0.00045304 </v>
   <v>       0.49948385       0.99976920       0.00064355 </v>
   <v>       0.99953963       0.50038148       0.00034469 </v>
   <v>       0.50045390       0.50065763       0.99965620 </v>
   <v>       0.99992529       0.00041396       0.50016771 </v>
   <v>       0.50036506       0.99947814       0.50077689 </v>
   <v>       0.99957831       0.49947040       0.50076889 </v>
   <v>       0.49979694       0.49963581       0.50086376 </v>
  </varray>
 </structure>
 <calculation>
  <scstep>
   <time name="dav">   10.93   10.94</time>
   <time name="total">   11.18   11.23</time>
   <energy>
    <i name="alphaZ">    294.68527101 </i>
    <i name="ewald"> -11195.35252060 </i>
    <i name="hartreedc">  -3997.80136574 </i>
    <i name="XCdc">     92.03687346 </i>
    <i name="pawpsdc">  13132.28373248 </i>
    <i name="pawaedc"> -12699.49664494 </i>
    <i name="eentropy">     -0.00040990 </i>
    <i name="bandstr">   1171.69350507 </i>
    <i name="atom">  15084.07529148 </i>
    <i name="e_fr_energy">   1882.12373233 </i>
    <i name="e_wo_entrp">   1882.12414223 </i>
    <i name="e_0_energy">   1882.12393728 </i>
   </energy>
  </scstep>
  <scstep>
   <time name="dav">   10.89   10.91</time>
   <time name="total">   10.90   10.92</time>
   <energy>
    <i name="e_fr_energy">    211.85461602 </i>
    <i name="e_wo_entrp">    211.85501954 </i>
    <i name="e_0_energy">    211.85481778 </i>
   </energy>
  </scstep>
  <scstep>
   <time name="dav">   12.73   12.75</time>
   <time name="total">   12.74   12.76</time>
   <energy>
    <i name="e_fr_energy">    -46.29099630 </i>
    <i name="e_wo_entrp">    -46.29099630 </i>
    <i name="e_0_energy">    -46.29099630 </i>
   </energy>
  </scstep>
  <scstep>
   <time name="dav">   12.66   12.67</time>
   <time name="total">   12.67   12.67</time>
   <energy>
    <i name="e_fr_energy">    -66.00576465 </i>
    <i name="e_wo_entrp">    -66.00576465 </i>
    <i name="e_0_energy">    -66.00576465 </i>
   </energy>
  </scstep>
  <scstep>
   <time name="dav">   12.78   12.80</time>
   <time name="total">   13.65   13.67</time>
   <energy>
    <i name="e_fr_energy">    -66.91208289 </i>
    <i name="e_wo_entrp">    -66.91208289 </i>
    <i name="e_0_energy">    -66.91208289 </i>
   </energy>
  </scstep>
  <scstep>
   <time name="diag">    3.06    3.06</time>
   <time name="diis">    8.72    8.73</time>
   <time name="orth">    0.29    0.29</time>
   <time name="total">   13.16   13.18</time>
   <energy>
    <i name="e_fr_energy">    -66.09139377 </i>
    <i name="e_wo_entrp">    -66.09139377 </i>
    <i name="e_0_energy">    -66.09139377 </i>
   </energy>
  </scstep>
  <scstep>
   <time name="diag">    3.07    3.07</time>
   <time name="diis">    8.93    8.94</time>
   <time name="orth">    0.29    0.29</time>
   <time name="total">   13.39   13.40</time>
   <energy>
    <i name="e_fr_energy">    -66.09977261 </i>
    <i name="e_wo_entrp">    -66.09977261 </i>
    <i name="e_0_energy">    -66.09977261 </i>
   </energy>
  </scstep>
  <scstep>
   <time name="diag">    3.07    3.07</time>
   <time name="diis">    8.70    8.71</time>
   <time name="orth">    0.29    0.29</time>
   <time name="total">   13.14   13.17</time>
   <energy>
    <i name="e_fr_energy">    -66.06998553 </i>
    <i name="e_wo_entrp">    -66.06998553 </i>
    <i name="e_0_energy">    -66.06998553 </i>
   </energy>
  </scstep>
  <scstep>
   <time name="diag">    3.14    3.15</time>
   <time name="diis">    9.71    9.71</time>
   <time name="orth">    0.29    0.29</time>
   <time name="total">   14.24   14.25</time>
   <energy>
    <i name="e_fr_energy">    -66.05787442 </i>
    <i name="e_wo_entrp">    -66.05787442 </i>
    <i name="e_0_energy">    -66.05787442 </i>
   </energy>
  </scstep>
  <scstep>
   <time name="diag">    3.09    3.09</time>
   <time name="diis">   10.01   10.01</time>
   <time name="orth">    0.29    0.29</time>
   <time name="total">   14.47   14.50</time>
   <energy>
    <i name="e_fr_energy">    -66.06048823 </i>
    <i name="e_wo_entrp">    -66.06048823 </i>
    <i name="e_0_energy">    -66.06048823 </i>
   </energy>
  </scstep>
  <scstep>
   <time name="diag">    3.09    3.09</time>
   <time name="diis">   11.58   11.58</time>
   <time name="orth">    0.29    0.29</time>
   <time name="total">   16.05   16.06</time>
   <energy>
    <i name="e_fr_energy">    -66.06128765 </i>
    <i name="e_wo_entrp">    -66.06128765 </i>
    <i name="e_0_energy">    -66.06128765 </i>
   </energy>
  </scstep>
  <scstep>
   <time name="diag">    3.10    3.10</time>
   <time name="diis">   11.04   11.05</time>
   <time name="orth">    0.29    0.29</time>
   <time name="total">   15.52   15.54</time>
   <energy>
    <i name="e_fr_energy">    -66.06089393 </i>
    <i name="e_wo_entrp">    -66.06089393 </i>
    <i name="e_0_energy">    -66.06089393 </i>
   </energy>
  </scstep>
  <scstep>
   <time name="diag">    3.08    3.08</time>
   <time name="diis">    9.53    9.54</time>
   <time name="orth">    0.29    0.29</time>
   <time name="total">   14.00   14.01</time>
   <energy>
    <i name="e_fr_energy">    -66.05979747 </i>
    <i name="e_wo_entrp">    -66.05979747 </i>
    <i name="e_0_energy">    -66.05979747 </i>
   </energy>
  </scstep>
  <scstep>
   <time name="diag">    3.10    3.10</time>
   <time name="diis">    8.91    8.91</time>
   <time name="orth">    0.29    0.29</time>
   <time name="total">   13.39   13.40</time>
   <energy>
    <i name="e_fr_energy">    -66.05956609 </i>
    <i name="e_wo_entrp">    -66.05956609 </i>
    <i name="e_0_energy">    -66.05956609 </i>
   </energy>
  </scstep>
  <scstep>
   <time name="diag">    3.12    3.12</time>
   <time name="diis">   11.13   11.13</time>
   <time name="orth">    0.29    0.29</time>
   <time name="total">   15.62   15.65</time>
   <energy>
    <i name="e_fr_energy">    -66.05957244 </i>
    <i name="e_wo_entrp">    -66.05957244 </i>
    <i name="e_0_energy">    -66.05957244 </i>
   </energy>
  </scstep>
  <scstep>
   <time name="diag">    3.10    3.10</time>
   <time name="diis">   10.04   10.05</time>
   <time name="orth">    0.29    0.29</time>
   <time name="total">   14.51   14.54</time>
   <energy>
    <i name="e_fr_energy">    -66.05958238 </i>
    <i name="e_wo_entrp">    -66.05958238 </i>
    <i name="e_0_energy">    -66.05958238 </i>
   </energy>
  </scstep>
  <scstep>
   <time name="diag">    3.09    3.09</time>
   <time name="diis">    9.04    9.05</time>
   <time name="orth">    0.29    0.29</time>
   <time name="total">   13.52   13.53</time>
   <energy>
    <i name="e_fr_energy">    -66.05955742 </i>
    <i name="e_wo_entrp">    -66.05955742 </i>
    <i name="e_0_energy">    -66.05955742 </i>
   </energy>
  </scstep>
  <scstep>
   <time name="diag">    3.09    3.09</time>
   <time name="diis">    9.42    9.43</time>
   <time name="orth">    0.29    0.29</time>
   <time name="total">   13.88   13.91</time>
   <energy>
    <i name="e_fr_energy">    -66.05952849 </i>
    <i name="e_wo_entrp">    -66.05952849 </i>
    <i name="e_0_energy">    -66.05952849 </i>
   </energy>
  </scstep>
  <scstep>
   <time name="diag">    3.08    3.08</time>
   <time name="diis">    9.73    9.74</time>
   <time name="orth">    0.29    0.29</time>
   <time name="total">   14.21   14.22</time>
   <energy>
    <i name="e_fr_energy">    -66.05952640 </i>
    <i name="e_wo_entrp">    -66.05952640 </i>
    <i name="e_0_energy">    -66.05952640 </i>
   </energy>
  </scstep>
  <scstep>
   <time name="diag">    3.15    3.15</time>
   <time name="diis">    8.85    8.86</time>
   <time name="orth">    0.30    0.30</time>
   <time name="total">   13.38   13.40</time>
   <energy>
    <i name="e_fr_energy">    -66.05952190 </i>
    <i name="e_wo_entrp">    -66.05952190 </i>
    <i name="e_0_energy">    -66.05952190 </i>
   </energy>
  </scstep>
  <scstep>
   <time name="diag">    3.09    3.09</time>
   <time name="diis">    8.49    8.49</time>
   <time name="orth">    0.29    0.29</time>
   <time name="total">   12.96   12.97</time>
   <energy>
    <i name="e_fr_energy">    -66.05951813 </i>
    <i name="e_wo_entrp">    -66.05951813 </i>
    <i name="e_0_energy">    -66.05951813 </i>
   </energy>
  </scstep>
  <scstep>
   <time name="diag">    3.09    3.09</time>
   <time name="diis">   10.71   10.71</time>
   <time name="orth">    0.29    0.29</time>
   <time name="total">   15.17   15.20</time>
   <energy>
    <i name="e_fr_energy">    -66.05951926 </i>
    <i name="e_wo_entrp">    -66.05951926 </i>
    <i name="e_0_energy">    -66.05951926 </i>
   </energy>
  </scstep>
  <scstep>
   <time name="diag">    3.09    3.09</time>
   <time name="diis">    9.65    9.66</time>
   <time name="orth">    0.29    0.29</time>
   <time name="total">   14.13   14.14</time>
   <energy>
    <i name="e_fr_energy">    -66.05952015 </i>
    <i name="e_wo_entrp">    -66.05952015 </i>
    <i name="e_0_energy">    -66.05952015 </i>
   </energy>
  </scstep>
  <scstep>
   <time name="diag">    3.09    3.09</time>
   <time name="diis">    9.07    9.07</time>
   <time name="orth">    0.29    0.29</time>
   <time name="total">   13.53   13.56</time>
   <energy>
    <i name="e_fr_energy">    -66.05952065 </i>
    <i name="e_wo_entrp">    -66.05952065 </i>
    <i name="e_0_energy">    -66.05952065 </i>
   </energy>
  </scstep>
  <scstep>
   <time name="diag">    3.16    3.16</time>
   <time name="diis">    8.35    8.36</time>
   <time name="orth">    0.29    0.29</time>
   <time name="total">   12.90   12.90</time>
   <energy>
    <i name="e_fr_energy">    -66.05952062 </i>
    <i name="e_wo_entrp">    -66.05952062 </i>
    <i name="e_0_energy">    -66.05952062 </i>
   </energy>
  </scstep>
  <scstep>
   <time name="diag">    3.09    3.09</time>
   <time name="diis">    6.65    6.66</time>
   <time name="orth">    0.29    0.29</time>
   <time name="total">   11.13   11.15</time>
   <energy>
    <i name="e_fr_energy">    -66.05952079 </i>
    <i name="e_wo_entrp">    -66.05952079 </i>
    <i name="e_0_energy">    -66.05952079 </i>
   </energy>
  </scstep>
  <scstep>
   <time name="diag">    3.09    3.10</time>
   <time name="diis">    5.28    5.29</time>
   <time name="orth">    0.29    0.29</time>
   <time name="total">    9.78    9.78</time>
   <energy>
    <i name="e_fr_energy">    -66.05952086 </i>
    <i name="e_wo_entrp">    -66.05952086 </i>
    <i name="e_0_energy">    -66.05952086 </i>
   </energy>
  </scstep>
  <scstep>
   <time name="diag">    3.11    3.11</time>
   <time name="diis">    5.33    5.34</time>
   <time name="orth">    0.29    0.29</time>
   <time name="total">    9.83    9.85</time>
   <energy>
    <i name="e_fr_energy">    -66.05952091 </i>
    <i name="e_wo_entrp">    -66.05952091 </i>
    <i name="e_0_energy">    -66.05952091 </i>
   </energy>
  </scstep>
  <scstep>
   <time name="diag">    3.10    3.10</time>
   <time name="diis">    5.37    5.37</time>
   <time name="orth">    0.29    0.29</time>
   <time name="total">    9.86    9.87</time>
   <energy>
    <i name="e_fr_energy">    -66.05952089 </i>
    <i name="e_wo_entrp">    -66.05952089 </i>
    <i name="e_0_energy">    -66.05952089 </i>
   </energy>
  </scstep>
  <scstep>
   <time name="diag">    3.16    3.16</time>
   <time name="diis">    5.21    5.22</time>
   <time name="orth">    0.29    0.29</time>
   <time name="total">    8.97    8.99</time>
   <energy>
    <i name="alphaZ">    294.68527101 </i>
    <i name="ewald"> -11195.35252060 </i>
    <i name="hartreedc">  -3966.17167832 </i>
    <i name="XCdc">     92.52783368 </i>
    <i name="pawpsdc">  15035.73940713 </i>
    <i name="pawaedc"> -14600.57714775 </i>
    <i name="eentropy">     -0.00000000 </i>
    <i name="bandstr">   -810.98597753 </i>
    <i name="atom">  15084.07529148 </i>
    <i name="e_fr_energy">    -66.05952090 </i>
    <i name="e_wo_entrp">    -66.05952090 </i>
    <i name="e_0_energy">    -66.05952090 </i>
   </energy>
  </scstep>
  <structure>
   <crystal>
    <varray name="basis" >
     <v>       0.00000000       6.41441522       6.41441522 </v>
     <v>       6.41441522       0.00000000       6.41441522 </v>
     <v>       6.41441522       6.41441522       0.00000000 </v>
    </varray>
    <i name="volume">    527.83866984 </i>
    <varray name="rec_basis" >
     <v>      -0.07794943       0.07794943       0.07794943 </v>
     <v>       0.07794943      -0.07794943       0.07794943 </v>
     <v>       0.07794943       0.07794943      -0.07794943 </v>
    </varray>
   </crystal>
   <varray name="positions" >
    <v>       0.24859428       0.25144069       0.25029412 </v>
    <v>       0.75121883       0.24990423       0.24995270 </v>
    <v>       0.24974603       0.74957542       0.25054301 </v>
    <v>       0.75068377       0.74943573       0.24905031 </v>
    <v>       0.24984131       0.24986265       0.75087769 </v>
    <v>       0.74917214       0.24974251       0.75002643 </v>
    <v>       0.25020280       0.74840766       0.75028821 </v>
    <v>       0.74998577       0.75060848       0.74905670 </v>
    <v>       0.99985281       0.00089526       0.00045304 </v>
    <v>       0.49948385       0.99976920       0.00064355 </v>
    <v>       0.99953963       0.50038148       0.00034469 </v>
    <v>       0.50045390       0.50065763       0.99965620 </v>
    <v>       0.99992529       0.00041396       0.50016771 </v>
    <v>       0.50036506       0.99947814       0.50077689 </v>
    <v>       0.99957831       0.49947040       0.50076889 </v>
    <v>       0.49979694       0.49963581       0.50086376 </v>
   </varray>
  </structure>
  <varray name="forces" >
   <v>      -0.02642404       0.03381619       0.01366011 </v>
   <v>      -0.00623920      -0.02122982      -0.04176721 </v>
   <v>      -0.00760821      -0.01090278      -0.00057609 </v>
   <v>       0.04507356       0.00300004       0.00439152 </v>
   <v>      -0.03451207      -0.00832661      -0.00346707 </v>
   <v>       0.01160802       0.02314921       0.00076126 </v>
   <v>       0.02818399       0.00361738       0.04194434 </v>
   <v>       0.01481531      -0.00842244      -0.00887660 </v>
   <v>      -0.02677245      -0.00037178      -0.02389310 </v>
   <v>       0.00568736       0.00711967       0.00318735 </v>
   <v>      -0.01101377       0.00659706       0.00197536 </v>
   <v>       0.00387369       0.00875964      -0.02226006 </v>
   <v>      -0.00563967       0.01113235       0.00407077 </v>
   <v>       0.00216729      -0.03370659       0.00294520 </v>
   <v>       0.00790860      -0.00135836       0.01063128 </v>
   <v>      -0.00110841      -0.01287318       0.01727292 </v>
  </varray>
  <varray name="stress" >
   <v>       6.19710594       0.00165972      -0.00011308 </v>
   <v>       0.00165982       6.18570699      -0.00157248 </v>
   <v>      -0.00011289      -0.00157281       6.18079799 </v>
  </varray>
  <energy>
   <i name="e_fr_energy">    -66.05952090 </i>
   <i name="e_wo_entrp">    -66.05952090 </i>
   <i name="e_0_energy">    -66.05952090 </i>
  </energy>
  <time name="totalsc">  411.85  412.61</time>
 </calculation>
 <calculation>
  <scstep>
   <time name="dav">   12.13   12.13</time>
   <time name="total">   13.20   13.21</time>
   <energy>
    <i name="alphaZ">    294.68527101 </i>
    <i name="ewald"> -11195.40268678 </i>
    <i name="hartreedc">  -3966.12536886 </i>
    <i name="XCdc">     92.52758377 </i>
    <i name="pawpsdc">  15035.73542914 </i>
    <i name="pawaedc"> -14600.57316272 </i>
    <i name="eentropy">     -0.00000000 </i>
    <i name="bandstr">   -810.98220754 </i>
    <i name="atom">  15084.07529148 </i>
    <i name="e_fr_energy">    -66.05985050 </i>
    <i name="e_wo_entrp">    -66.05985050 </i>
    <i name="e_0_energy">    -66.05985050 </i>
   </energy>
  </scstep>
  <scstep>
   <time name="diag">    3.08    3.08</time>
   <time name="diis">    9.52    9.52</time>
   <time name="orth">    0.29    0.29</time>
   <time name="total">   13.97   13.99</time>
   <energy>
    <i name="e_fr_energy">    -66.06006800 </i>
    <i name="e_wo_entrp">    -66.06006800 </i>
    <i name="e_0_energy">    -66.06006800 </i>
   </energy>
  </scstep>
  <scstep>
   <time name="diag">    3.09    3.09</time>
   <time name="diis">   11.24   11.24</time>
   <time name="orth">    0.34    0.34</time>
   <time name="total">   15.77   15.79</time>
   <energy>
    <i name="e_fr_energy">    -66.06016503 </i>
    <i name="e_wo_entrp">    -66.06016503 </i>
    <i name="e_0_energy">    -66.06016503 </i>
   </energy>
  </scstep>
  <scstep>
   <time name="diag">    3.08    3.08</time>
   <time name="diis">   10.53   10.53</time>
   <time name="orth">    0.29    0.29</time>
   <time name="total">   14.99   15.01</time>
   <energy>
    <i name="e_fr_energy">    -66.06017045 </i>
    <i name="e_wo_entrp">    -66.06017045 </i>
    <i name="e_0_energy">    -66.06017045 </i>
   </energy>
  </scstep>
  <scstep>
   <time name="diag">    3.12    3.12</time>
   <time name="diis">   10.89   10.90</time>
   <time name="orth">    0.29    0.29</time>
   <time name="total">   15.39   15.41</time>
   <energy>
    <i name="e_fr_energy">    -66.06017107 </i>
    <i name="e_wo_entrp">    -66.06017107 </i>
    <i name="e_0_energy">    -66.06017107 </i>
   </energy>
  </scstep>
  <scstep>
   <time name="diag">    3.08    3.08</time>
   <time name="diis">   10.47   10.48</time>
   <time name="orth">    0.29    0.29</time>
   <time name="total">   14.93   14.95</time>
   <energy>
    <i name="e_fr_energy">    -66.06017117 </i>
    <i name="e_wo_entrp">    -66.06017117 </i>
    <i name="e_0_energy">    -66.06017117 </i>
   </energy>
  </scstep>
  <scstep>
   <time name="diag">    3.09    3.09</time>
   <time name="diis">   10.76   10.77</time>
   <time name="orth">    0.29    0.29</time>
   <time name="total">   15.23   15.26</time>
   <energy>
    <i name="e_fr_energy">    -66.06017125 </i>
    <i name="e_wo_entrp">    -66.06017125 </i>
    <i name="e_0_energy">    -66.06017125 </i>
   </energy>
  </scstep>
  <scstep>
   <time name="diag">    3.09    3.09</time>
   <time name="diis">    9.06    9.07</time>
   <time name="orth">    0.29    0.29</time>
   <time name="total">   13.53   13.55</time>
   <energy>
    <i name="e_fr_energy">    -66.06017128 </i>
    <i name="e_wo_entrp">    -66.06017128 </i>
    <i name="e_0_energy">    -66.06017128 </i>
   </energy>
  </scstep>
  <scstep>
   <time name="diag">    3.12    3.12</time>
   <time name="diis">    5.45    5.46</time>
   <time name="orth">    0.29    0.29</time>
   <time name="total">    9.95    9.97</time>
   <energy>
    <i name="e_fr_energy">    -66.06017126 </i>
    <i name="e_wo_entrp">    -66.06017126 </i>
    <i name="e_0_energy">    -66.06017126 </i>
   </energy>
  </scstep>
  <scstep>
   <time name="diag">    3.12    3.12</time>
   <time name="diis">    5.28    5.29</time>
   <time name="orth">    0.29    0.29</time>
   <time name="total">    9.02    9.02</time>
   <energy>
    <i name="alphaZ">    294.68527101 </i>
    <i name="ewald"> -11195.40268678 </i>
    <i name="hartreedc">  -3966.12599215 </i>
    <i name="XCdc">     92.52762073 </i>
    <i name="pawpsdc">  15035.62462429 </i>
    <i name="pawaedc"> -14600.46146004 </i>
    <i name="eentropy">     -0.00000000 </i>
    <i name="bandstr">   -810.98283982 </i>
    <i name="atom">  15084.07529148 </i>
    <i name="e_fr_energy">    -66.06017127 </i>
    <i name="e_wo_entrp">    -66.06017127 </i>
    <i name="e_0_energy">    -66.06017127 </i>
   </energy>
  </scstep>
  <structure>
   <crystal>
    <varray name="basis" >
     <v>       0.00000000       6.41441522       6.41441522 </v>
     <v>       6.41441522       0.00000000       6.41441522 </v>
     <v>       6.41441522       6.41441522       0.00000000 </v>
    </varray>
    <i name="volume">    527.83866984 </i>
    <varray name="rec_basis" >
     <v>      -0.07794943       0.07794943       0.07794943 </v>
     <v>       0.07794943      -0.07794943       0.07794943 </v>
     <v>       0.07794943       0.07794943      -0.07794943 </v>
    </varray>
   </crystal>
   <varray name="positions" >
    <v>       0.24887219       0.25126553       0.25027055 </v>
    <v>       0.75100539       0.24980354       0.25000647 </v>
    <v>       0.24973147       0.74958564       0.25047556 </v>
    <v>       0.75054207       0.74961046       0.24921458 </v>
    <v>       0.24992675       0.24975114       0.75072963 </v>
    <v>       0.74921841       0.24970198       0.75015427 </v>
    <v>       0.25026815       0.74865778       0.75025006 </v>
    <v>       0.74986501       0.75066248       0.74911412 </v>
    <v>       0.99986224       0.00070613       0.00044081 </v>
    <v>       0.49950122       0.99977580       0.00067973 </v>
    <v>       0.99961328       0.50032268       0.00032065 </v>
    <v>       0.50038856       0.50055555       0.99978741 </v>
    <v>       0.00000367       0.00036620       0.50017306 </v>
    <v>       0.50024123       0.99962412       0.50064722 </v>
    <v>       0.99958344       0.49954522       0.50075354 </v>
    <v>       0.49981765       0.49974501       0.50074623 </v>
   </varray>
  </structure>
  <varray name="forces" >
   <v>      -0.02173093       0.02310476       0.00943452 </v>
   <v>      -0.00304604      -0.01602217      -0.02961213 </v>
   <v>      -0.00427548      -0.00712935      -0.00088717 </v>
   <v>       0.03279539       0.00374354       0.00131310 </v>
   <v>      -0.02334015      -0.00783637      -0.00081713 </v>
   <v>       0.00821217       0.01757523       0.00206540 </v>
   <v>       0.02225686       0.00135787       0.03018981 </v>
   <v>       0.01219459      -0.00108351      -0.00603619 </v>
   <v>      -0.02195393      -0.00083239      -0.01852030 </v>
   <v>       0.00413949       0.00495464       0.00320452 </v>
   <v>      -0.00905356       0.00415475       0.00141129 </v>
   <v>       0.00247777       0.00717557      -0.01765214 </v>
   <v>      -0.00446253       0.00847890       0.00188987 </v>
   <v>       0.00129609      -0.02657118       0.00251550 </v>
   <v>       0.00659321      -0.00110017       0.00861950 </v>
   <v>      -0.00210294      -0.00997012       0.01288153 </v>
  </varray>
  <varray name="stress" >
   <v>       6.18471817       0.00105492       0.00038947 </v>
   <v>       0.00105474       6.17711175      -0.00087741 </v>
   <v>       0.00038944      -0.00087759       6.17196142 </v>
  </varray>
  <energy>
   <i name="e_fr_energy">    -66.06017127 </i>
   <i name="e_wo_entrp">    -66.06017127 </i>
   <i name="e_0_energy">    -66.06017127 </i>
  </energy>
  <time name="totalsc">  151.40  151.86</time>
 </calculation>
 <calculation>
  <scstep>
   <time name="dav">   12.10   12.10</time>
   <time name="total">   13.18   13.19</time>
   <energy>
    <i name="alphaZ">    294.68527101 </i>
    <i name="ewald"> -11195.46413085 </i>
    <i name="hartreedc">  -3966.07070466 </i>
    <i name="XCdc">     92.52722248 </i>
    <i name="pawpsdc">  15035.62364347 </i>
    <i name="pawaedc"> -14600.46047999 </i>
    <i name="eentropy">     -0.00000000 </i>
    <i name="bandstr">   -810.97421315 </i>
    <i name="atom">  15084.07529148 </i>
    <i name="e_fr_energy">    -66.05810020 </i>
    <i name="e_wo_entrp">    -66.05810020 </i>
    <i name="e_0_energy">    -66.05810020 </i>
   </energy>
  </scstep>
  <scstep>
   <time name="diag">    3.09    3.09</time>
   <time name="diis">    9.52    9.53</time>
   <time name="orth">    0.32    0.32</time>
   <time name="total">   14.01   14.04</time>
   <energy>
    <i name="e_fr_energy">    -66.05988240 </i>
    <i name="e_wo_entrp">    -66.05988240 </i>
    <i name="e_0_energy">    -66.05988240 </i>
   </energy>
  </scstep>
  <scstep>
   <time name="diag">    3.12    3.12</time>
   <time name="diis">   11.24   11.25</time>
   <time name="orth">    0.29    0.29</time>
   <time name="total">   15.73   15.76</time>
   <energy>
    <i name="e_fr_energy">    -66.06087984 </i>
    <i name="e_wo_entrp">    -66.06087984 </i>
    <i name="e_0_energy">    -66.06087984 </i>
   </energy>
  </scstep>
  <scstep>
   <time name="diag">    3.08    3.09</time>
   <time name="diis">   12.29   12.30</time>
   <time name="orth">    0.29    0.29</time>
   <time name="total">   16.75   16.78</time>
   <energy>
    <i name="e_fr_energy">    -66.06095958 </i>
    <i name="e_wo_entrp">    -66.06095958 </i>
    <i name="e_0_energy">    -66.06095958 </i>
   </energy>
  </scstep>
  <scstep>
   <time name="diag">    3.08    3.08</time>
   <time name="diis">   10.99   11.00</time>
   <time name="orth">    0.29    0.29</time>
   <time name="total">   15.45   15.48</time>
   <energy>
    <i name="e_fr_energy">    -66.06096413 </i>
    <i name="e_wo_entrp">    -66.06096413 </i>
    <i name="e_0_energy">    -66.06096413 </i>
   </energy>
  </scstep>
  <scstep>
   <time name="diag">    3.09    3.09</time>
   <time name="diis">    8.95    8.96</time>
   <time name="orth">    0.29    0.29</time>
   <time name="total">   13.42   13.44</time>
   <energy>
    <i name="e_fr_energy">    -66.06096491 </i>
    <i name="e_wo_entrp">    -66.06096491 </i>
    <i name="e_0_energy">    -66.06096491 </i>
   </energy>
  </scstep>
  <scstep>
   <time name="diag">    3.09    3.09</time>
   <time name="diis">   12.20   12.21</time>
   <time name="orth">    0.29    0.29</time>
   <time name="total">   16.67   16.70</time>
   <energy>
    <i name="e_fr_energy">    -66.06096579 </i>
    <i name="e_wo_entrp">    -66.06096579 </i>
    <i name="e_0_energy">    -66.06096579 </i>
   </energy>
  </scstep>
  <scstep>
   <time name="diag">    3.09    3.09</time>
   <time name="diis">   10.49   10.50</time>
   <time name="orth">    0.29    0.29</time>
   <time name="total">   14.96   14.98</time>
   <energy>
    <i name="e_fr_energy">    -66.06096583 </i>
    <i name="e_wo_entrp">    -66.06096583 </i>
    <i name="e_0_energy">    -66.06096583 </i>
   </energy>
  </scstep>
  <scstep>
   <time name="diag">    3.10    3.10</time>
   <time name="diis">   11.40   11.40</time>
   <time name="orth">    0.29    0.29</time>
   <time name="total">   15.91   15.93</time>
   <energy>
    <i name="e_fr_energy">    -66.06096593 </i>
    <i name="e_wo_entrp">    -66.06096593 </i>
    <i name="e_0_energy">    -66.06096593 </i>
   </energy>
  </scstep>
  <scstep>
   <time name="diag">    3.09    3.09</time>
   <time name="diis">    8.69    8.69</time>
   <time name="orth">    0.29    0.29</time>
   <time name="total">   13.18   13.18</time>
   <energy>
    <i name="e_fr_energy">    -66.06096593 </i>
    <i name="e_wo_entrp">    -66.06096593 </i>
    <i name="e_0_energy">    -66.06096593 </i>
   </energy>
  </scstep>
  <scstep>
   <time name="diag">    3.09    3.09</time>
   <time name="diis">    9.25    9.26</time>
   <time name="orth">    0.29    0.29</time>
   <time name="total">   13.72   13.74</time>
   <energy>
    <i name="e_fr_energy">    -66.06096590 </i>
    <i name="e_wo_entrp">    -66.06096590 </i>
    <i name="e_0_energy">    -66.06096590 </i>
   </energy>
  </scstep>
  <scstep>
   <time name="diag">    3.09    3.09</time>
   <time name="diis">    5.30    5.30</time>
   <time name="orth">    0.29    0.29</time>
   <time name="total">    9.77    9.78</time>
   <energy>
    <i name="e_fr_energy">    -66.06096592 </i>
    <i name="e_wo_entrp">    -66.06096592 </i>
    <i name="e_0_energy">    -66.06096592 </i>
   </energy>
  </scstep>
  <scstep>
   <time name="diag">    3.09    3.09</time>
   <time name="diis">    5.28    5.28</time>
   <time name="orth">    0.29    0.29</time>
   <time name="total">    9.75    9.77</time>
   <energy>
    <i name="e_fr_energy">    -66.06096589 </i>
    <i name="e_wo_entrp">    -66.06096589 </i>
    <i name="e_0_energy">    -66.06096589 </i>
   </energy>
  </scstep>
  <scstep>
   <time name="diag">    3.10    3.10</time>
   <time name="diis">    5.29    5.29</time>
   <time name="orth">    0.29    0.29</time>
   <time name="total">    9.78    9.80</time>
   <energy>
    <i name="e_fr_energy">    -66.06096587 </i>
    <i name="e_wo_entrp">    -66.06096587 </i>
    <i name="e_0_energy">    -66.06096587 </i>
   </energy>
  </scstep>
  <scstep>
   <time name="diag">    3.09    3.10</time>
   <time name="diis">    5.29    5.29</time>
   <time name="orth">    0.29    0.29</time>
   <time name="total">    8.98    9.00</time>
   <energy>
    <i name="alphaZ">    294.68527101 </i>
    <i name="ewald"> -11195.46413085 </i>
    <i name="hartreedc">  -3966.06959991 </i>
    <i name="XCdc">     92.52726588 </i>
    <i name="pawpsdc">  15035.45549811 </i>
    <i name="pawaedc"> -14600.29077951 </i>
    <i name="eentropy">     -0.00000000 </i>
    <i name="bandstr">   -810.97978207 </i>
    <i name="atom">  15084.07529148 </i>
    <i name="e_fr_energy">    -66.06096586 </i>
    <i name="e_wo_entrp">    -66.06096586 </i>
    <i name="e_0_energy">    -66.06096586 </i>
   </energy>
  </scstep>
  <structure>
   <crystal>
    <varray name="basis" >
     <v>       0.00000000       6.41441522       6.41441522 </v>
     <v>       6.41441522       0.00000000       6.41441522 </v>
     <v>       6.41441522       6.41441522       0.00000000 </v>
    </varray>
    <i name="volume">    527.83866984 </i>
    <varray name="rec_basis" >
     <v>      -0.07794943       0.07794943       0.07794943 </v>
     <v>       0.07794943      -0.07794943       0.07794943 </v>
     <v>       0.07794943       0.07794943      -0.07794943 </v>
    </varray>
   </crystal>
   <varray name="positions" >
    <v>       0.24965690       0.25077091       0.25020399 </v>
    <v>       0.75040270       0.24951921       0.25015830 </v>
    <v>       0.24969037       0.74961451       0.25028512 </v>
    <v>       0.75014194       0.75010385       0.24967842 </v>
    <v>       0.25016798       0.24943627       0.75031156 </v>
    <v>       0.74934904       0.24958751       0.75051526 </v>
    <v>       0.25045268       0.74936403       0.75014236 </v>
    <v>       0.74952400       0.75081498       0.74927626 </v>
    <v>       0.99988887       0.00017208       0.00040629 </v>
    <v>       0.49955028       0.99979443       0.00078187 </v>
    <v>       0.99982126       0.50015666       0.00025278 </v>
    <v>       0.50020407       0.50026730       0.00015793 </v>
    <v>       0.00022499       0.00023133       0.50018816 </v>
    <v>       0.49989157       0.00003632       0.50028104 </v>
    <v>       0.99959793       0.49975651       0.50071021 </v>
    <v>       0.49987614       0.50005334       0.50041435 </v>
   </varray>
  </structure>
  <varray name="forces" >
   <v>      -0.00898044      -0.00695888      -0.00238811 </v>
   <v>       0.00586085      -0.00168883       0.00409367 </v>
   <v>       0.00501432       0.00336302      -0.00176967 </v>
   <v>      -0.00104018       0.00588157      -0.00740836 </v>
   <v>       0.00777056      -0.00662198       0.00659372 </v>
   <v>      -0.00118935       0.00228031       0.00574643 </v>
   <v>       0.00575171      -0.00499441      -0.00235399 </v>
   <v>       0.00498763       0.01953670       0.00184989 </v>
   <v>      -0.00827022      -0.00211828      -0.00341871 </v>
   <v>      -0.00030768      -0.00109740       0.00327563 </v>
   <v>      -0.00377046      -0.00282249      -0.00014195 </v>
   <v>      -0.00145522       0.00265458      -0.00464939 </v>
   <v>      -0.00118200       0.00113169      -0.00424149 </v>
   <v>      -0.00111567      -0.00623365       0.00128621 </v>
   <v>       0.00295517      -0.00036225       0.00297800 </v>
   <v>      -0.00502901      -0.00194971       0.00054812 </v>
  </varray>
  <varray name="stress" >
   <v>       6.16887381       0.00008798       0.00058724 </v>
   <v>       0.00008792       6.16854345      -0.00018353 </v>
   <v>       0.00058726      -0.00018332       6.16431655 </v>
  </varray>
  <energy>
   <i name="e_fr_energy">    -66.06096586 </i>
   <i name="e_wo_entrp">    -66.06096586 </i>
   <i name="e_0_energy">    -66.06096586 </i>
  </energy>
  <time name="totalsc">  216.65  217.00</time>
 </calculation>
 <calculation>
  <scstep>
   <time name="dav">   12.13   12.13</time>
   <time name="total">   13.20   13.20</time>
   <energy>
    <i name="alphaZ">    294.68527101 </i>
    <i name="ewald"> -11195.47135719 </i>
    <i name="hartreedc">  -3966.06297583 </i>
    <i name="XCdc">     92.52720962 </i>
    <i name="pawpsdc">  15035.45468050 </i>
    <i name="pawaedc"> -14600.28998646 </i>
    <i name="eentropy">     -0.00000000 </i>
    <i name="bandstr">   -810.97911588 </i>
    <i name="atom">  15084.07529148 </i>
    <i name="e_fr_energy">    -66.06098274 </i>
    <i name="e_wo_entrp">    -66.06098274 </i>
    <i name="e_0_energy">    -66.06098274 </i>
   </energy>
  </scstep>
  <scstep>
   <time name="diag">    3.08    3.08</time>
   <time name="diis">    9.58    9.59</time>
   <time name="orth">    0.30    0.30</time>
   <time name="total">   14.05   14.07</time>
   <energy>
    <i name="e_fr_energy">    -66.06103051 </i>
    <i name="e_wo_entrp">    -66.06103051 </i>
    <i name="e_0_energy">    -66.06103051 </i>
   </energy>
  </scstep>
  <scstep>
   <time name="diag">    3.08    3.08</time>
   <time name="diis">   11.24   11.25</time>
   <time name="orth">    0.32    0.32</time>
   <time name="total">   15.73   15.75</time>
   <energy>
    <i name="e_fr_energy">    -66.06104709 </i>
    <i name="e_wo_entrp">    -66.06104709 </i>
    <i name="e_0_energy">    -66.06104709 </i>
   </energy>
  </scstep>
  <scstep>
   <time name="diag">    3.08    3.08</time>
   <time name="diis">   10.55   10.55</time>
   <time name="orth">    0.29    0.29</time>
   <time name="total">   15.00   15.03</time>
   <energy>
    <i name="e_fr_energy">    -66.06104792 </i>
    <i name="e_wo_entrp">    -66.06104792 </i>
    <i name="e_0_energy">    -66.06104792 </i>
   </energy>
  </scstep>
  <scstep>
   <time name="diag">    3.13    3.13</time>
   <time name="diis">   11.61   11.62</time>
   <time name="orth">    0.29    0.29</time>
   <time name="total">   16.18   16.20</time>
   <energy>
    <i name="e_fr_energy">    -66.06104799 </i>
    <i name="e_wo_entrp">    -66.06104799 </i>
    <i name="e_0_energy">    -66.06104799 </i>
   </energy>
  </scstep>
  <scstep>
   <time name="diag">    3.18    3.18</time>
   <time name="diis">   10.21   10.21</time>
   <time name="orth">    0.29    0.29</time>
   <time name="total">   14.76   14.78</time>
   <energy>
    <i name="e_fr_energy">    -66.06104792 </i>
    <i name="e_wo_entrp">    -66.06104792 </i>
    <i name="e_0_energy">    -66.06104792 </i>
   </energy>
  </scstep>
  <scstep>
   <time name="diag">    3.09    3.09</time>
   <time name="diis">    8.88    8.88</time>
   <time name="orth">    0.29    0.29</time>
   <time name="total">   12.57   12.60</time>
   <energy>
    <i name="alphaZ">    294.68527101 </i>
    <i name="ewald"> -11195.47135719 </i>
    <i name="hartreedc">  -3966.06079357 </i>
    <i name="XCdc">     92.52712894 </i>
    <i name="pawpsdc">  15035.42579023 </i>
    <i name="pawaedc"> -14600.26095972 </i>
    <i name="eentropy">     -0.00000000 </i>
    <i name="bandstr">   -810.98141911 </i>
    <i name="atom">  15084.07529148 </i>
    <i name="e_fr_energy">    -66.06104792 </i>
    <i name="e_wo_entrp">    -66.06104792 </i>
    <i name="e_0_energy">    -66.06104792 </i>
   </energy>
  </scstep>
  <structure>
   <crystal>
    <varray name="basis" >
     <v>       0.00000000       6.41441522       6.41441522 </v>
     <v>       6.41441522       0.00000000       6.41441522 </v>
     <v>       6.41441522       6.41441522       0.00000000 </v>
    </varray>
    <i name="volume">    527.83866984 </i>
    <varray name="rec_basis" >
     <v>      -0.07794943       0.07794943       0.07794943 </v>
     <v>       0.07794943      -0.07794943       0.07794943 </v>
     <v>       0.07794943       0.07794943      -0.07794943 </v>
    </varray>
   </crystal>
   <varray name="positions" >
    <v>       0.24968490       0.25072596       0.25012170 </v>
    <v>       0.75035921       0.24957679       0.25016459 </v>
    <v>       0.24966866       0.74961492       0.25033751 </v>
    <v>       0.75012370       0.75003849       0.24976832 </v>
    <v>       0.25013136       0.24954766       0.75026345 </v>
    <v>       0.74940829       0.24959651       0.75050174 </v>
    <v>       0.25038268       0.74944055       0.75015653 </v>
    <v>       0.74960739       0.75074611       0.74941591 </v>
    <v>       0.99990597       0.00009524       0.00036395 </v>
    <v>       0.49956679       0.99981907       0.00075826 </v>
    <v>       0.99983399       0.50014386       0.00021221 </v>
    <v>       0.50019381       0.50020468       0.00020658 </v>
    <v>       0.00022215       0.00018758       0.50021340 </v>
    <v>       0.49985559       0.00008984       0.50021616 </v>
    <v>       0.99959649       0.49980168       0.50070628 </v>
    <v>       0.49989974       0.50005030       0.50035731 </v>
   </varray>
  </structure>
  <varray name="forces" >
   <v>      -0.00671335      -0.00437386      -0.00207563 </v>
   <v>       0.00435680      -0.00139482       0.00267642 </v>
   <v>       0.00389416       0.00243986      -0.00057054 </v>
   <v>       0.00021247       0.00450926      -0.00554150 </v>
   <v>       0.00559602      -0.00477151       0.00459326 </v>
   <v>      -0.00035810       0.00206618       0.00491190 </v>
   <v>       0.00477710      -0.00345332      -0.00089305 </v>
   <v>       0.00407914       0.01437038       0.00068208 </v>
   <v>      -0.00576427      -0.00160515      -0.00189834 </v>
   <v>      -0.00068222      -0.00141977       0.00269357 </v>
   <v>      -0.00274746      -0.00249158      -0.00016128 </v>
   <v>      -0.00148665       0.00123457      -0.00331246 </v>
   <v>      -0.00107044       0.00015024      -0.00378829 </v>
   <v>      -0.00124908      -0.00342067       0.00080548 </v>
   <v>       0.00147229      -0.00067811       0.00228539 </v>
   <v>      -0.00431641      -0.00116171      -0.00040701 </v>
  </varray>
  <varray name="stress" >
   <v>       6.17352205      -0.00006307       0.00050250 </v>
   <v>      -0.00006331       6.17245272      -0.00008515 </v>
   <v>       0.00050254      -0.00008521       6.17071873 </v>
  </varray>
  <energy>
   <i name="e_fr_energy">    -66.06104792 </i>
   <i name="e_wo_entrp">    -66.06104792 </i>
   <i name="e_0_energy">    -66.06104792 </i>
  </energy>
  <time name="totalsc">  116.83  117.02</time>
 </calculation>
 <calculation>
  <scstep>
   <time name="dav">   11.97   11.98</time>
   <time name="total">   13.10   13.11</time>
   <energy>
    <i name="alphaZ">    294.68527101 </i>
    <i name="ewald"> -11195.48049576 </i>
    <i name="hartreedc">  -3966.05494032 </i>
    <i name="XCdc">     92.52715698 </i>
    <i name="pawpsdc">  15035.42033797 </i>
    <i name="pawaedc"> -14600.25543155 </i>
    <i name="eentropy">     -0.00000000 </i>
    <i name="bandstr">   -810.97803586 </i>
    <i name="atom">  15084.07529148 </i>
    <i name="e_fr_energy">    -66.06084605 </i>
    <i name="e_wo_entrp">    -66.06084605 </i>
    <i name="e_0_energy">    -66.06084605 </i>
   </energy>
  </scstep>
  <scstep>
   <time name="diag">    3.09    3.09</time>
   <time name="diis">    9.57    9.58</time>
   <time name="orth">    0.29    0.29</time>
   <time name="total">   14.03   14.05</time>
   <energy>
    <i name="e_fr_energy">    -66.06104726 </i>
    <i name="e_wo_entrp">    -66.06104726 </i>
    <i name="e_0_energy">    -66.06104726 </i>
   </energy>
  </scstep>
  <scstep>
   <time name="diag">    3.15    3.15</time>
   <time name="diis">   11.25   11.26</time>
   <time name="orth">    0.29    0.29</time>
   <time name="total">   15.78   15.80</time>
   <energy>
    <i name="e_fr_energy">    -66.06113453 </i>
    <i name="e_wo_entrp">    -66.06113453 </i>
    <i name="e_0_energy">    -66.06113453 </i>
   </energy>
  </scstep>
  <scstep>
   <time name="diag">    3.09    3.09</time>
   <time name="diis">   10.64   10.65</time>
   <time name="orth">    0.29    0.29</time>
   <time name="total">   15.10   15.13</time>
   <energy>
    <i name="e_fr_energy">    -66.06113978 </i>
    <i name="e_wo_entrp">    -66.06113978 </i>
    <i name="e_0_energy">    -66.06113978 </i>
   </energy>
  </scstep>
  <scstep>
   <time name="diag">    3.09    3.10</time>
   <time name="diis">   11.50   11.50</time>
   <time name="orth">    0.29    0.29</time>
   <time name="total">   15.97   15.99</time>
   <energy>
    <i name="e_fr_energy">    -66.06114051 </i>
    <i name="e_wo_entrp">    -66.06114051 </i>
    <i name="e_0_energy">    -66.06114051 </i>
   </energy>
  </scstep>
  <scstep>
   <time name="diag">    3.09    3.09</time>
   <time name="diis">    8.87    8.88</time>
   <time name="orth">    0.29    0.29</time>
   <time name="total">   13.33   13.36</time>
   <energy>
    <i name="e_fr_energy">    -66.06114049 </i>
    <i name="e_wo_entrp">    -66.06114049 </i>
    <i name="e_0_energy">    -66.06114049 </i>
   </energy>
  </scstep>
  <scstep>
   <time name="diag">    3.10    3.10</time>
   <time name="diis">   11.65   11.66</time>
   <time name="orth">    0.29    0.29</time>
   <time name="total">   16.12   16.15</time>
   <energy>
    <i name="e_fr_energy">    -66.06114056 </i>
    <i name="e_wo_entrp">    -66.06114056 </i>
    <i name="e_0_energy">    -66.06114056 </i>
   </energy>
  </scstep>
  <scstep>
   <time name="diag">    3.10    3.10</time>
   <time name="diis">    8.65    8.66</time>
   <time name="orth">    0.29    0.29</time>
   <time name="total">   13.12   13.14</time>
   <energy>
    <i name="e_fr_energy">    -66.06114060 </i>
    <i name="e_wo_entrp">    -66.06114060 </i>
    <i name="e_0_energy">    -66.06114060 </i>
   </energy>
  </scstep>
  <scstep>
   <time name="diag">    3.15    3.15</time>
   <time name="diis">    6.63    6.64</time>
   <time name="orth">    0.29    0.29</time>
   <time name="total">   11.15   11.18</time>
   <energy>
    <i name="e_fr_energy">    -66.06114058 </i>
    <i name="e_wo_entrp">    -66.06114058 </i>
    <i name="e_0_energy">    -66.06114058 </i>
   </energy>
  </scstep>
  <scstep>
   <time name="diag">    3.09    3.09</time>
   <time name="diis">    5.30    5.30</time>
   <time name="orth">    0.29    0.29</time>
   <time name="total">    9.00    9.01</time>
   <energy>
    <i name="alphaZ">    294.68527101 </i>
    <i name="ewald"> -11195.48049576 </i>
    <i name="hartreedc">  -3966.05343278 </i>
    <i name="XCdc">     92.52711389 </i>
    <i name="pawpsdc">  15035.38490598 </i>
    <i name="pawaedc"> -14600.21967602 </i>
    <i name="eentropy">     -0.00000000 </i>
    <i name="bandstr">   -810.98011838 </i>
    <i name="atom">  15084.07529148 </i>
    <i name="e_fr_energy">    -66.06114058 </i>
    <i name="e_wo_entrp">    -66.06114058 </i>
    <i name="e_0_energy">    -66.06114058 </i>
   </energy>
  </scstep>
  <structure>
   <crystal>
    <varray name="basis" >
     <v>       0.00000000       6.41441522       6.41441522 </v>
     <v>       6.41441522       0.00000000       6.41441522 </v>
     <v>       6.41441522       6.41441522       0.00000000 </v>
    </varray>
    <i name="volume">    527.83866984 </i>
    <varray name="rec_basis" >
     <v>      -0.07794943       0.07794943       0.07794943 </v>
     <v>       0.07794943      -0.07794943       0.07794943 </v>
     <v>       0.07794943       0.07794943      -0.07794943 </v>
    </varray>
   </crystal>
   <varray name="positions" >
    <v>       0.24974385       0.25063130       0.24994841 </v>
    <v>       0.75026762       0.24969805       0.25017785 </v>
    <v>       0.24962295       0.74961579       0.25044782 </v>
    <v>       0.75008530       0.74990086       0.24995763 </v>
    <v>       0.25005425       0.24978221       0.75016216 </v>
    <v>       0.74953305       0.24961546       0.75047326 </v>
    <v>       0.25023530       0.74960167       0.75018636 </v>
    <v>       0.74978298       0.75060110       0.74970997 </v>
    <v>       0.99994199      -0.00006655       0.00027480 </v>
    <v>       0.49960156       0.99987095       0.00070853 </v>
    <v>       0.99986081       0.50011693       0.00012679 </v>
    <v>       0.50017220       0.50007283       0.00030903 </v>
    <v>       0.00021617       0.00009544       0.50026655 </v>
    <v>       0.49977982       0.00020255       0.50007953 </v>
    <v>       0.99959346       0.49989677       0.50069800 </v>
    <v>       0.49994941       0.50004389       0.50023720 </v>
   </varray>
  </structure>
  <varray name="forces" >
   <v>      -0.00220442       0.00090932      -0.00148539 </v>
   <v>       0.00134897      -0.00082256      -0.00021488 </v>
   <v>       0.00165362       0.00055570       0.00189948 </v>
   <v>       0.00282248       0.00176277      -0.00181933 </v>
   <v>       0.00118713      -0.00102461       0.00056602 </v>
   <v>       0.00133920       0.00166613       0.00331683 </v>
   <v>       0.00286804      -0.00033307       0.00213644 </v>
   <v>       0.00225140       0.00391536      -0.00173054 </v>
   <v>      -0.00055772      -0.00054469       0.00126174 </v>
   <v>      -0.00150455      -0.00210873       0.00146763 </v>
   <v>      -0.00062473      -0.00176011      -0.00020442 </v>
   <v>      -0.00159339      -0.00175534      -0.00053114 </v>
   <v>      -0.00087152      -0.00192185      -0.00284280 </v>
   <v>      -0.00158129       0.00235456      -0.00021838 </v>
   <v>      -0.00165902      -0.00136471       0.00082474 </v>
   <v>      -0.00287422       0.00047182      -0.00242600 </v>
  </varray>
  <varray name="stress" >
   <v>       6.16450552      -0.00001796       0.00041113 </v>
   <v>      -0.00001802       6.16403647      -0.00010024 </v>
   <v>       0.00041111      -0.00010014       6.16397247 </v>
  </varray>
  <energy>
   <i name="e_fr_energy">    -66.06114058 </i>
   <i name="e_wo_entrp">    -66.06114058 </i>
   <i name="e_0_energy">    -66.06114058 </i>
  </energy>
  <time name="totalsc">  152.04  152.30</time>
 </calculation>
 <calculation>
  <scstep>
   <time name="dav">   12.21   12.22</time>
   <time name="total">   13.28   13.29</time>
   <energy>
    <i name="alphaZ">    294.68527101 </i>
    <i name="ewald"> -11195.48171616 </i>
    <i name="hartreedc">  -3966.05191937 </i>
    <i name="XCdc">     92.52709149 </i>
    <i name="pawpsdc">  15035.38592672 </i>
    <i name="pawaedc"> -14600.22070422 </i>
    <i name="eentropy">     -0.00000000 </i>
    <i name="bandstr">   -810.98035572 </i>
    <i name="atom">  15084.07529148 </i>
    <i name="e_fr_energy">    -66.06111478 </i>
    <i name="e_wo_entrp">    -66.06111478 </i>
    <i name="e_0_energy">    -66.06111478 </i>
   </energy>
  </scstep>
  <scstep>
   <time name="diag">    3.08    3.08</time>
   <time name="diis">    9.57    9.57</time>
   <time name="orth">    0.29    0.29</time>
   <time name="total">   14.04   14.07</time>
   <energy>
    <i name="e_fr_energy">    -66.06113893 </i>
    <i name="e_wo_entrp">    -66.06113893 </i>
    <i name="e_0_energy">    -66.06113893 </i>
   </energy>
  </scstep>
  <scstep>
   <time name="diag">    3.08    3.08</time>
   <time name="diis">   11.22   11.23</time>
   <time name="orth">    0.29    0.30</time>
   <time name="total">   15.69   15.71</time>
   <energy>
    <i name="e_fr_energy">    -66.06114693 </i>
    <i name="e_wo_entrp">    -66.06114693 </i>
    <i name="e_0_energy">    -66.06114693 </i>
   </energy>
  </scstep>
  <scstep>
   <time name="diag">    3.08    3.08</time>
   <time name="diis">   10.54   10.55</time>
   <time name="orth">    0.29    0.29</time>
   <time name="total">   15.00   15.02</time>
   <energy>
    <i name="e_fr_energy">    -66.06114732 </i>
    <i name="e_wo_entrp">    -66.06114732 </i>
    <i name="e_0_energy">    -66.06114732 </i>
   </energy>
  </scstep>
  <scstep>
   <time name="diag">    3.08    3.09</time>
   <time name="diis">   11.58   11.59</time>
   <time name="orth">    0.29    0.29</time>
   <time name="total">   16.04   16.07</time>
   <energy>
    <i name="e_fr_energy">    -66.06114736 </i>
    <i name="e_wo_entrp">    -66.06114736 </i>
    <i name="e_0_energy">    -66.06114736 </i>
   </energy>
  </scstep>
  <scstep>
   <time name="diag">    3.08    3.08</time>
   <time name="diis">    8.81    8.82</time>
   <time name="orth">    0.29    0.29</time>
   <time name="total">   13.29   13.31</time>
   <energy>
    <i name="e_fr_energy">    -66.06114732 </i>
    <i name="e_wo_entrp">    -66.06114732 </i>
    <i name="e_0_energy">    -66.06114732 </i>
   </energy>
  </scstep>
  <scstep>
   <time name="diag">    3.15    3.15</time>
   <time name="diis">    7.84    7.85</time>
   <time name="orth">    0.29    0.29</time>
   <time name="total">   11.59   11.61</time>
   <energy>
    <i name="alphaZ">    294.68527101 </i>
    <i name="ewald"> -11195.48171616 </i>
    <i name="hartreedc">  -3966.05148483 </i>
    <i name="XCdc">     92.52707734 </i>
    <i name="pawpsdc">  15035.38444751 </i>
    <i name="pawaedc"> -14600.21920181 </i>
[...]
     <v>       6.41441522       6.41441522       0.00000000 </v>
    </varray>
    <i name="volume">    527.83866984 </i>
    <varray name="rec_basis" >
     <v>      -0.07794943       0.07794943       0.07794943 </v>
     <v>       0.07794943      -0.07794943       0.07794943 </v>
     <v>       0.07794943       0.07794943      -0.07794943 </v>
    </varray>
   </crystal>
   <varray name="positions" >
    <v>       0.24987780       0.25002756       0.25022543 </v>
    <v>       0.74997577       0.24998032       0.25017662 </v>
    <v>       0.24989249       0.74994350       0.25028741 </v>
    <v>       0.74986342       0.74995959       0.25024180 </v>
    <v>       0.24986381       0.24996436       0.75023564 </v>
    <v>       0.74989555       0.24994348       0.75028602 </v>
    <v>       0.24997612       0.74998277       0.75017642 </v>
    <v>       0.74987795       0.75002791       0.75023368 </v>
    <v>      -0.00007897      -0.00007124       0.00025346 </v>
    <v>       0.49985725       0.99999538       0.00025609 </v>
    <v>       0.99992243       0.50000796       0.00020375 </v>
    <v>       0.49990767       0.49999252       0.00023865 </v>
    <v>      -0.00009106      -0.00000742       0.50023824 </v>
    <v>       0.49992169       0.00000795       0.50020301 </v>
    <v>       0.99985774       0.49999526       0.50025478 </v>
    <v>       0.49992106       0.49992935       0.50025289 </v>
   </varray>
  </structure>
  <varray name="forces" >
   <v>       0.00001660       0.00021278       0.00000609 </v>
   <v>       0.00018744      -0.00005073      -0.00024491 </v>
   <v>      -0.00004139      -0.00006059       0.00010428 </v>
   <v>       0.00006179       0.00002552       0.00026942 </v>
   <v>       0.00004704       0.00013450       0.00016367 </v>
   <v>       0.00000094      -0.00007913       0.00004578 </v>
   <v>       0.00015789      -0.00003638      -0.00025586 </v>
   <v>      -0.00013626       0.00002017      -0.00001885 </v>
   <v>       0.00005803      -0.00018892       0.00004284 </v>
   <v>      -0.00013793       0.00011187       0.00005405 </v>
   <v>      -0.00003824      -0.00010758      -0.00008733 </v>
   <v>      -0.00007168       0.00006605      -0.00001521 </v>
   <v>      -0.00005877       0.00003795      -0.00006258 </v>
   <v>      -0.00001227      -0.00005536      -0.00006227 </v>
   <v>      -0.00008804       0.00013997       0.00004037 </v>
   <v>       0.00005486      -0.00017013       0.00002050 </v>
  </varray>
  <varray name="stress" >
   <v>       6.16566323       0.00008354       0.00004240 </v>
   <v>       0.00008357       6.16564978       0.00005329 </v>
   <v>       0.00004256       0.00005317       6.16565157 </v>
  </varray>
  <energy>
   <i name="e_fr_energy">    -66.06120601 </i>
   <i name="e_wo_entrp">    -66.06120601 </i>
   <i name="e_0_energy">    -66.06120601 </i>
  </energy>
  <time name="totalsc">   52.05   52.18</time>
 </calculation>
 <calculation>
  <scstep>
   <time name="dav">    7.66    7.66</time>
   <time name="total">    8.73    8.73</time>
   <energy>
    <i name="alphaZ">    294.68527101 </i>
    <i name="ewald"> -11195.48652279 </i>
    <i name="hartreedc">  -3966.04717161 </i>
    <i name="XCdc">     92.52711199 </i>
    <i name="pawpsdc">  15035.37147040 </i>
    <i name="pawaedc"> -14600.20606336 </i>
    <i name="eentropy">     -0.00000000 </i>
    <i name="bandstr">   -810.98059313 </i>
    <i name="atom">  15084.07529148 </i>
    <i name="e_fr_energy">    -66.06120601 </i>
    <i name="e_wo_entrp">    -66.06120601 </i>
    <i name="e_0_energy">    -66.06120601 </i>
   </energy>
  </scstep>
  <scstep>
   <time name="diag">    3.15    3.15</time>
   <time name="diis">    2.67    2.68</time>
   <time name="orth">    0.29    0.29</time>
   <time name="total">    7.20    7.22</time>
   <energy>
    <i name="e_fr_energy">    -66.06120601 </i>
    <i name="e_wo_entrp">    -66.06120601 </i>
    <i name="e_0_energy">    -66.06120601 </i>
   </energy>
  </scstep>
  <scstep>
   <time name="diag">    3.08    3.08</time>
   <time name="diis">    2.72    2.72</time>
   <time name="orth">    0.29    0.29</time>
   <time name="total">    7.17    7.19</time>
   <energy>
    <i name="e_fr_energy">    -66.06120601 </i>
    <i name="e_wo_entrp">    -66.06120601 </i>
    <i name="e_0_energy">    -66.06120601 </i>
   </energy>
  </scstep>
  <scstep>
   <time name="diag">    3.08    3.08</time>
   <time name="diis">    2.76    2.76</time>
   <time name="orth">    0.29    0.29</time>
   <time name="total">    7.22    7.23</time>
   <energy>
    <i name="e_fr_energy">    -66.06120601 </i>
    <i name="e_wo_entrp">    -66.06120601 </i>
    <i name="e_0_energy">    -66.06120601 </i>
   </energy>
  </scstep>
  <scstep>
   <time name="diag">    3.09    3.09</time>
   <time name="diis">    2.68    2.68</time>
   <time name="orth">    0.29    0.29</time>
   <time name="total">    6.36    6.38</time>
   <energy>
    <i name="alphaZ">    294.68527101 </i>
    <i name="ewald"> -11195.48652279 </i>
    <i name="hartreedc">  -3966.04725679 </i>
    <i name="XCdc">     92.52711526 </i>
    <i name="pawpsdc">  15035.37146450 </i>
    <i name="pawaedc"> -14600.20605588 </i>
    <i name="eentropy">     -0.00000000 </i>
    <i name="bandstr">   -810.98051279 </i>
    <i name="atom">  15084.07529148 </i>
    <i name="e_fr_energy">    -66.06120601 </i>
    <i name="e_wo_entrp">    -66.06120601 </i>
    <i name="e_0_energy">    -66.06120601 </i>
   </energy>
  </scstep>
  <structure>
   <crystal>
    <varray name="basis" >
     <v>       0.00000000       6.41441522       6.41441522 </v>
     <v>       6.41441522       0.00000000       6.41441522 </v>
     <v>       6.41441522       6.41441522       0.00000000 </v>
    </varray>
    <i name="volume">    527.83866984 </i>
    <varray name="rec_basis" >
     <v>      -0.07794943       0.07794943       0.07794943 </v>
     <v>       0.07794943      -0.07794943       0.07794943 </v>
     <v>       0.07794943       0.07794943      -0.07794943 </v>
    </varray>
   </crystal>
   <varray name="positions" >
    <v>       0.24987780       0.25002756       0.25022543 </v>
    <v>       0.74997577       0.24998032       0.25017662 </v>
    <v>       0.24989249       0.74994350       0.25028741 </v>
    <v>       0.74986342       0.74995959       0.25024180 </v>
    <v>       0.24986381       0.24996436       0.75023564 </v>
    <v>       0.74989555       0.24994348       0.75028602 </v>
    <v>       0.24997612       0.74998277       0.75017642 </v>
    <v>       0.74987795       0.75002791       0.75023368 </v>
    <v>      -0.00007897      -0.00007124       0.00025346 </v>
    <v>       0.49985725       0.99999538       0.00025609 </v>
    <v>       0.99992243       0.50000796       0.00020375 </v>
    <v>       0.49990767       0.49999252       0.00023865 </v>
    <v>      -0.00009106      -0.00000742       0.50023824 </v>
    <v>       0.49992169       0.00000795       0.50020301 </v>
    <v>       0.99985774       0.49999526       0.50025478 </v>
    <v>       0.49992106       0.49992935       0.50025289 </v>
   </varray>
  </structure>
  <varray name="forces" >
   <v>       0.00001434       0.00021183       0.00000434 </v>
   <v>       0.00018811      -0.00005101      -0.00024619 </v>
   <v>      -0.00004173      -0.00006203       0.00010573 </v>
   <v>       0.00006148       0.00002704       0.00026958 </v>
   <v>       0.00004748       0.00013448       0.00016519 </v>
   <v>      -0.00000010      -0.00008058       0.00004815 </v>
   <v>       0.00015879      -0.00003707      -0.00025759 </v>
   <v>      -0.00013696       0.00002196      -0.00002019 </v>
   <v>       0.00005877      -0.00018868       0.00004343 </v>
   <v>      -0.00013763       0.00011179       0.00005403 </v>
   <v>      -0.00003827      -0.00010696      -0.00008789 </v>
   <v>      -0.00007127       0.00006640      -0.00001531 </v>
   <v>      -0.00005867       0.00003775      -0.00006228 </v>
   <v>      -0.00001154      -0.00005528      -0.00006227 </v>
   <v>      -0.00008801       0.00014057       0.00004065 </v>
   <v>       0.00005520      -0.00017021       0.00002063 </v>
  </varray>
  <varray name="stress" >
   <v>       6.16607846       0.00008366       0.00004231 </v>
   <v>       0.00008345       6.16606574       0.00005276 </v>
   <v>       0.00004227       0.00005280       6.16607214 </v>
  </varray>
  <energy>
   <i name="e_fr_energy">    -66.06120601 </i>
   <i name="e_wo_entrp">    -66.06120601 </i>
   <i name="e_0_energy">    -66.06120601 </i>
  </energy>
  <time name="totalsc">   52.01   52.16</time>
 </calculation>
 <calculation>
  <scstep>
   <time name="dav">    7.64    7.64</time>
   <time name="total">    8.71    8.71</time>
   <energy>
    <i name="alphaZ">    294.68527101 </i>
    <i name="ewald"> -11195.48652279 </i>
    <i name="hartreedc">  -3966.04725713 </i>
    <i name="XCdc">     92.52711527 </i>
    <i name="pawpsdc">  15035.37146465 </i>
    <i name="pawaedc"> -14600.20605604 </i>
    <i name="eentropy">     -0.00000000 </i>
    <i name="bandstr">   -810.98051245 </i>
    <i name="atom">  15084.07529148 </i>
    <i name="e_fr_energy">    -66.06120601 </i>
    <i name="e_wo_entrp">    -66.06120601 </i>
    <i name="e_0_energy">    -66.06120601 </i>
   </energy>
  </scstep>
  <scstep>
   <time name="diag">    3.15    3.15</time>
   <time name="diis">    2.67    2.67</time>
   <time name="orth">    0.29    0.29</time>
   <time name="total">    7.20    7.21</time>
   <energy>
    <i name="e_fr_energy">    -66.06120601 </i>
    <i name="e_wo_entrp">    -66.06120601 </i>
    <i name="e_0_energy">    -66.06120601 </i>
   </energy>
  </scstep>
  <scstep>
   <time name="diag">    3.08    3.08</time>
   <time name="diis">    2.67    2.67</time>
   <time name="orth">    0.29    0.29</time>
   <time name="total">    7.12    7.14</time>
   <energy>
    <i name="e_fr_energy">    -66.06120601 </i>
    <i name="e_wo_entrp">    -66.06120601 </i>
    <i name="e_0_energy">    -66.06120601 </i>
   </energy>
  </scstep>
  <scstep>
   <time name="diag">    3.08    3.08</time>
   <time name="diis">    2.76    2.76</time>
   <time name="orth">    0.29    0.29</time>
   <time name="total">    7.22    7.24</time>
   <energy>
    <i name="e_fr_energy">    -66.06120601 </i>
    <i name="e_wo_entrp">    -66.06120601 </i>
    <i name="e_0_energy">    -66.06120601 </i>
   </energy>
  </scstep>
  <scstep>
   <time name="diag">    3.08    3.08</time>
   <time name="diis">    2.70    2.70</time>
   <time name="orth">    0.29    0.29</time>
   <time name="total">    6.37    6.39</time>
   <energy>
    <i name="alphaZ">    294.68527101 </i>
    <i name="ewald"> -11195.48652279 </i>
    <i name="hartreedc">  -3966.04718165 </i>
    <i name="XCdc">     92.52711238 </i>
    <i name="pawpsdc">  15035.37146838 </i>
    <i name="pawaedc"> -14600.20606097 </i>
    <i name="eentropy">     -0.00000000 </i>
    <i name="bandstr">   -810.98058384 </i>
    <i name="atom">  15084.07529148 </i>
    <i name="e_fr_energy">    -66.06120601 </i>
    <i name="e_wo_entrp">    -66.06120601 </i>
    <i name="e_0_energy">    -66.06120601 </i>
   </energy>
  </scstep>
  <structure>
   <crystal>
    <varray name="basis" >
     <v>       0.00000000       6.41441522       6.41441522 </v>
     <v>       6.41441522       0.00000000       6.41441522 </v>
     <v>       6.41441522       6.41441522       0.00000000 </v>
    </varray>
    <i name="volume">    527.83866984 </i>
    <varray name="rec_basis" >
     <v>      -0.07794943       0.07794943       0.07794943 </v>
     <v>       0.07794943      -0.07794943       0.07794943 </v>
     <v>       0.07794943       0.07794943      -0.07794943 </v>
    </varray>
   </crystal>
   <varray name="positions" >
    <v>       0.24987780       0.25002756       0.25022543 </v>
    <v>       0.74997577       0.24998032       0.25017662 </v>
    <v>       0.24989249       0.74994350       0.25028741 </v>
    <v>       0.74986342       0.74995959       0.25024180 </v>
    <v>       0.24986381       0.24996436       0.75023564 </v>
    <v>       0.74989555       0.24994348       0.75028602 </v>
    <v>       0.24997612       0.74998277       0.75017642 </v>
    <v>       0.74987795       0.75002791       0.75023368 </v>
    <v>      -0.00007897      -0.00007124       0.00025346 </v>
    <v>       0.49985725       0.99999538       0.00025609 </v>
    <v>       0.99992243       0.50000796       0.00020375 </v>
    <v>       0.49990767       0.49999252       0.00023865 </v>
    <v>      -0.00009106      -0.00000742       0.50023824 </v>
    <v>       0.49992169       0.00000795       0.50020301 </v>
    <v>       0.99985774       0.49999526       0.50025478 </v>
    <v>       0.49992106       0.49992935       0.50025289 </v>
   </varray>
  </structure>
  <varray name="forces" >
   <v>       0.00001228       0.00021125       0.00000307 </v>
   <v>       0.00018895      -0.00005147      -0.00024791 </v>
   <v>      -0.00004212      -0.00006332       0.00010686 </v>
   <v>       0.00006116       0.00002839       0.00027016 </v>
   <v>       0.00004789       0.00013443       0.00016707 </v>
   <v>      -0.00000108      -0.00008184       0.00005008 </v>
   <v>       0.00015984      -0.00003787      -0.00025971 </v>
   <v>      -0.00013773       0.00002382      -0.00002114 </v>
   <v>       0.00005883      -0.00018868       0.00004316 </v>
   <v>      -0.00013757       0.00011222       0.00005430 </v>
   <v>      -0.00003772      -0.00010704      -0.00008752 </v>
   <v>      -0.00007113       0.00006637      -0.00001510 </v>
   <v>      -0.00005823       0.00003813      -0.00006247 </v>
   <v>      -0.00001150      -0.00005494      -0.00006232 </v>
   <v>      -0.00008753       0.00014047       0.00004061 </v>
   <v>       0.00005567      -0.00016991       0.00002086 </v>
  </varray>
  <varray name="stress" >
   <v>       6.16571245       0.00008339       0.00004237 </v>
   <v>       0.00008347       6.16569947       0.00005299 </v>
   <v>       0.00004240       0.00005302       6.16570304 </v>
  </varray>
  <energy>
   <i name="e_fr_energy">    -66.06120601 </i>
   <i name="e_wo_entrp">    -66.06120601 </i>
   <i name="e_0_energy">    -66.06120601 </i>
  </energy>
  <time name="totalsc">   51.94   52.03</time>
 </calculation>
 <calculation>
  <scstep>
   <time name="dav">   12.01   12.02</time>
   <time name="total">   13.11   13.11</time>
   <energy>
    <i name="alphaZ">    294.68527101 </i>
    <i name="ewald"> -11195.48650864 </i>
    <i name="hartreedc">  -3966.04719564 </i>
    <i name="XCdc">     92.52711204 </i>
    <i name="pawpsdc">  15035.37146824 </i>
    <i name="pawaedc"> -14600.20606083 </i>
    <i name="eentropy">     -0.00000000 </i>
    <i name="bandstr">   -810.98058093 </i>
    <i name="atom">  15084.07529148 </i>
    <i name="e_fr_energy">    -66.06120327 </i>
    <i name="e_wo_entrp">    -66.06120327 </i>
    <i name="e_0_energy">    -66.06120327 </i>
   </energy>
  </scstep>
  <scstep>
   <time name="diag">    3.07    3.08</time>
   <time name="diis">    9.71    9.72</time>
   <time name="orth">    0.29    0.29</time>
   <time name="total">   14.17   14.19</time>
   <energy>
    <i name="e_fr_energy">    -66.06120504 </i>
    <i name="e_wo_entrp">    -66.06120504 </i>
    <i name="e_0_energy">    -66.06120504 </i>
   </energy>
  </scstep>
  <scstep>
   <time name="diag">    3.14    3.14</time>
   <time name="diis">   11.07   11.07</time>
   <time name="orth">    0.29    0.29</time>
   <time name="total">   15.59   15.62</time>
   <energy>
    <i name="e_fr_energy">    -66.06120557 </i>
    <i name="e_wo_entrp">    -66.06120557 </i>
    <i name="e_0_energy">    -66.06120557 </i>
   </energy>
  </scstep>
  <scstep>
   <time name="diag">    3.08    3.08</time>
   <time name="diis">   10.25   10.26</time>
   <time name="orth">    0.29    0.29</time>
   <time name="total">   14.70   14.72</time>
   <energy>
    <i name="e_fr_energy">    -66.06120561 </i>
    <i name="e_wo_entrp">    -66.06120561 </i>
    <i name="e_0_energy">    -66.06120561 </i>
   </energy>
  </scstep>
  <scstep>
   <time name="diag">    3.07    3.07</time>
   <time name="diis">    7.57    7.58</time>
   <time name="orth">    0.29    0.29</time>
   <time name="total">   11.25   11.27</time>
   <energy>
    <i name="alphaZ">    294.68527101 </i>
    <i name="ewald"> -11195.48650864 </i>
    <i name="hartreedc">  -3966.04715815 </i>
    <i name="XCdc">     92.52711097 </i>
    <i name="pawpsdc">  15035.37117176 </i>
    <i name="pawaedc"> -14600.20576326 </i>
    <i name="eentropy">     -0.00000000 </i>
    <i name="bandstr">   -810.98062079 </i>
    <i name="atom">  15084.07529148 </i>
    <i name="e_fr_energy">    -66.06120561 </i>
    <i name="e_wo_entrp">    -66.06120561 </i>
    <i name="e_0_energy">    -66.06120561 </i>
   </energy>
  </scstep>
  <structure>
   <crystal>
    <varray name="basis" >
     <v>       0.00000000       6.41441522       6.41441522 </v>
     <v>       6.41441522       0.00000000       6.41441522 </v>
     <v>       6.41441522       6.41441522       0.00000000 </v>
    </varray>
    <i name="volume">    527.83866984 </i>
    <varray name="rec_basis" >
     <v>      -0.07794943       0.07794943       0.07794943 </v>
     <v>       0.07794943      -0.07794943       0.07794943 </v>
     <v>       0.07794943       0.07794943      -0.07794943 </v>
    </varray>
   </crystal>
   <varray name="positions" >
    <v>       0.24987759       0.25004505       0.25023555 </v>
    <v>       0.74999057       0.24998338       0.25016789 </v>
    <v>       0.24989074       0.74993204       0.25030578 </v>
    <v>       0.74985183       0.74996754       0.25024007 </v>
    <v>       0.24985646       0.24995314       0.75024514 </v>
    <v>       0.74988542       0.24993080       0.75031261 </v>
    <v>       0.24999609       0.74998518       0.75016634 </v>
    <v>       0.74986966       0.75004877       0.75022370 </v>
    <v>      -0.00007403      -0.00008553       0.00025135 </v>
    <v>       0.49984526       0.99999995       0.00026373 </v>
    <v>       0.99992486       0.50002246       0.00018741 </v>
    <v>       0.49990655       0.49999019       0.00024011 </v>
    <v>      -0.00008504      -0.00001135       0.50023829 </v>
    <v>       0.49992857       0.00001150       0.50018462 </v>
    <v>       0.99985265       0.49999622       0.50024984 </v>
    <v>       0.49992353       0.49990990       0.50025147 </v>
   </varray>
  </structure>
  <varray name="forces" >
   <v>      -0.00037826      -0.00031295      -0.00035505 </v>
   <v>       0.00024126       0.00000048      -0.00022499 </v>
   <v>      -0.00001269      -0.00023562       0.00021664 </v>
   <v>      -0.00024144       0.00033928       0.00011743 </v>
   <v>       0.00027747      -0.00001764       0.00049641 </v>
   <v>      -0.00027614      -0.00035302       0.00046891 </v>
   <v>       0.00016029      -0.00020981      -0.00068009 </v>
   <v>      -0.00017213       0.00054569      -0.00013477 </v>
   <v>       0.00016537      -0.00014185       0.00004728 </v>
   <v>      -0.00035926       0.00003597       0.00001197 </v>
   <v>      -0.00016472       0.00004285      -0.00026523 </v>
   <v>      -0.00006573       0.00013501       0.00022643 </v>
   <v>       0.00005173      -0.00007998      -0.00002045 </v>
   <v>       0.00027485       0.00005290      -0.00002893 </v>
   <v>       0.00021413       0.00025469      -0.00011468 </v>
   <v>       0.00028529      -0.00005599       0.00023911 </v>
  </varray>
  <varray name="stress" >
   <v>       6.16581858       0.00005669       0.00004777 </v>
   <v>       0.00005656       6.16581437       0.00009016 </v>
   <v>       0.00004756       0.00008990       6.16570256 </v>
  </varray>
  <energy>
   <i name="e_fr_energy">    -66.06120561 </i>
   <i name="e_wo_entrp">    -66.06120561 </i>
   <i name="e_0_energy">    -66.06120561 </i>
  </energy>
