<?xml version="1.0" encoding="ISO-8859-1"?>
<modeling>
 <generator>
  <i name="program" type="string">vasp </i>
  <i name="version" type="string">6.3.0  </i>
  <i name="subversion" type="string">20Jan22 (build Feb 21 2022 11:18:28) complex                          parallel </i>
  <i name="platform" type="string">CrayXC_GCC_OMP </i>
  <i name="date" type="string">2023 10 04 </i>
  <i name="time" type="string">23:14:52 </i>
 </generator>
 <incar>
  <i type="int" name="ISTART">     1</i>
  <i type="string" name="PREC">Accurate  (Precision level)</i>
  <i type="string" name="ALGO">FAST      (SCF minimisation algorithm</i>
  <i type="logical" name="ADDGRID"> T  </i>
  <i type="int" name="ISPIN">     1</i>
  <i type="int" name="INIWAV">     1</i>
  <i type="int" name="NELM">   500</i>
  <i type="int" name="NELMIN">     5</i>
  <i type="int" name="IBRION">     2</i>
  <i name="EDIFF">      0.00000001</i>
  <i name="EDIFFG">     -0.00000010</i>
  <i type="int" name="NSW">     0</i>
  <i type="int" name="ISIF">     2</i>
  <i type="int" name="ISYM">     2</i>
  <i type="int" name="NBLOCK">     1</i>
  <i name="ENMAX">    600.00000000</i>
  <i type="int" name="NEDOS">  1000</i>
  <i type="logical" name="LREAL"> F  </i>
  <i type="logical" name="LPLANE"> T  </i>
  <i type="int" name="ISMEAR">     0</i>
  <i name="SIGMA">      0.01000000</i>
  <i type="int" name="NWRITE">     2</i>
  <i type="int" name="LMAXMIX">     4</i>
  <i type="int" name="LORBIT">    11</i>
  <i type="int" name="ICORELEVEL">     1</i>
  <i type="string" name="GGA">PS     (PBEsol exchange-correlation)</i>
 </incar>
 <primitive_cell>
  <structure name="primitive_cell" >
   <crystal>
    <varray name="basis" >
     <v>       0.00000000       2.71790590       2.71790590 </v>
     <v>       2.71790590       0.00000000       2.71790590 </v>
     <v>       2.71790590       2.71790590       0.00000000 </v>
    </varray>
    <i name="volume">     40.15440960 </i>
    <varray name="rec_basis" >
     <v>      -0.18396516       0.18396516       0.18396516 </v>
     <v>       0.18396516      -0.18396516       0.18396516 </v>
     <v>       0.18396516       0.18396516      -0.18396516 </v>
    </varray>
   </crystal>
   <varray name="positions" >
    <v>       0.25000000       0.25000000       0.25000000 </v>
    <v>       0.00000000       0.00000000       0.00000000 </v>
   </varray>
  </structure>
  <varray name="primitive_index" >
   <v type="int" >        1 </v>
   <v type="int" >        9 </v>
  </varray>
 </primitive_cell>
 <kpoints>
  <generation param="Gamma">
   <v type="int" name="divisions">       6        6        6 </v>
   <v name="usershift">      0.00000000       0.00000000       0.00000000 </v>
   <v name="genvec1">      0.16666667       0.00000000      -0.00000000 </v>
   <v name="genvec2">      0.00000000       0.16666667       0.00000000 </v>
   <v name="genvec3">     -0.00000000      -0.00000000       0.16666667 </v>
   <v name="shift">      0.00000000       0.00000000       0.00000000 </v>
  </generation>
  <varray name="kpointlist" >
   <v>       0.00000000       0.00000000       0.00000000 </v>
   <v>       0.16666667       0.00000000       0.00000000 </v>
   <v>       0.33333333       0.00000000       0.00000000 </v>
   <v>       0.50000000       0.00000000       0.00000000 </v>
   <v>       0.16666667       0.16666667       0.00000000 </v>
   <v>       0.33333333       0.16666667       0.00000000 </v>
   <v>       0.50000000       0.16666667       0.00000000 </v>
   <v>      -0.33333333       0.16666667       0.00000000 </v>
   <v>      -0.16666667       0.16666667       0.00000000 </v>
   <v>       0.33333333       0.33333333       0.00000000 </v>
   <v>       0.50000000       0.33333333       0.00000000 </v>
   <v>      -0.33333333       0.33333333       0.00000000 </v>
   <v>       0.50000000       0.50000000       0.00000000 </v>
   <v>       0.50000000       0.33333333       0.16666667 </v>
   <v>      -0.33333333       0.33333333       0.16666667 </v>
   <v>      -0.33333333       0.50000000       0.16666667 </v>
  </varray>
  <varray name="weights" >
   <v>       0.00462963 </v>
   <v>       0.03703704 </v>
   <v>       0.03703704 </v>
   <v>       0.01851852 </v>
   <v>       0.02777778 </v>
   <v>       0.11111111 </v>
   <v>       0.11111111 </v>
   <v>       0.11111111 </v>
   <v>       0.05555556 </v>
   <v>       0.02777778 </v>
   <v>       0.11111111 </v>
   <v>       0.05555556 </v>
   <v>       0.01388889 </v>
   <v>       0.11111111 </v>
   <v>       0.11111111 </v>
   <v>       0.05555556 </v>
  </varray>
 </kpoints>
 <parameters>
  <separator name="general" >
   <i type="string" name="SYSTEM">unknown system</i>
   <i type="logical" name="LCOMPAT"> F  </i>
  </separator>
  <separator name="electronic" >
   <i type="string" name="PREC">accura</i>
   <i name="ENMAX">    600.00000000</i>
   <i name="ENAUG">    322.06900000</i>
   <i name="EDIFF">      0.00000001</i>
   <i type="int" name="IALGO">    68</i>
   <i type="int" name="IWAVPR">    10</i>
   <i type="int" name="NBANDS">    48</i>
   <i type="int" name="NBANDSLOW">    -1</i>
   <i type="int" name="NBANDSHIGH">    -1</i>
   <i name="NELECT">     64.00000000</i>
   <i type="int" name="TURBO">     0</i>
   <i type="int" name="IRESTART">     0</i>
   <i type="int" name="NREBOOT">     0</i>
   <i type="int" name="NMIN">     0</i>
   <i name="EREF">      0.00000000</i>
   <separator name="electronic smearing" >
    <i type="int" name="ISMEAR">     0</i>
    <i name="SIGMA">      0.01000000</i>
    <i name="KSPACING">      0.50000000</i>
    <i type="logical" name="KGAMMA"> T  </i>
    <i type="logical" name="KBLOWUP"> T  </i>
   </separator>
   <separator name="electronic projectors" >
    <i type="logical" name="LREAL"> F  </i>
    <v name="ROPT">      0.00000000</v>
    <i type="int" name="LMAXPAW">  -100</i>
    <i type="int" name="LMAXMIX">     4</i>
    <i type="logical" name="NLSPLINE"> F  </i>
   </separator>
   <separator name="electronic startup" >
    <i type="int" name="ISTART">     0</i>
    <i type="int" name="ICHARG">     2</i>
    <i type="int" name="INIWAV">     1</i>
   </separator>
   <separator name="electronic spin" >
    <i type="int" name="ISPIN">     1</i>
    <i type="logical" name="LNONCOLLINEAR"> F  </i>
    <v name="MAGMOM">      1.00000000      1.00000000      1.00000000      1.00000000      1.00000000      1.00000000      1.00000000      1.00000000      1.00000000      1.00000000      1.00000000      1.00000000      1.00000000      1.00000000      1.00000000      1.00000000</v>
    <i name="NUPDOWN">     -1.00000000</i>
    <i type="logical" name="LSORBIT"> F  </i>
    <v name="SAXIS">      0.00000000      0.00000000      1.00000000</v>
    <i type="logical" name="LSPIRAL"> F  </i>
    <v name="QSPIRAL">      0.00000000      0.00000000      0.00000000</v>
    <i type="logical" name="LZEROZ"> F  </i>
   </separator>
   <separator name="electronic exchange-correlation" >
    <i type="logical" name="LASPH"> F  </i>
    <i type="logical" name="LMETAGGA"> F  </i>
   </separator>
   <separator name="electronic convergence" >
    <i type="int" name="NELM">   500</i>
    <i type="int" name="NELMDL">     0</i>
    <i type="int" name="NELMIN">     5</i>
    <i name="ENINI">    600.00000000</i>
    <separator name="electronic convergence detail" >
     <i type="logical" name="LDIAG"> T  </i>
     <i type="logical" name="LSUBROT"> F  </i>
     <i name="WEIMIN">      0.00000000</i>
     <i name="EBREAK">      0.00000000</i>
     <i name="DEPER">      0.30000000</i>
     <i type="int" name="NRMM">     4</i>
     <i name="TIME">      0.40000000</i>
    </separator>
   </separator>
   <separator name="electronic mixer" >
    <i name="AMIX">      0.40000000</i>
    <i name="BMIX">      1.00000000</i>
    <i name="AMIN">      0.10000000</i>
    <i name="AMIX_MAG">      1.60000000</i>
    <i name="BMIX_MAG">      1.00000000</i>
    <separator name="electronic mixer details" >
     <i type="int" name="IMIX">     4</i>
     <i type="logical" name="MIXFIRST"> F  </i>
     <i type="int" name="MAXMIX">   -45</i>
     <i name="WC">    100.00000000</i>
     <i type="int" name="INIMIX">     1</i>
     <i type="int" name="MIXPRE">     1</i>
     <i type="int" name="MREMOVE">     5</i>
    </separator>
   </separator>
   <separator name="electronic dipolcorrection" >
    <i type="logical" name="LDIPOL"> F  </i>
    <i type="logical" name="LMONO"> F  </i>
    <i type="int" name="IDIPOL">     0</i>
    <i name="EPSILON">      1.00000000</i>
    <v name="DIPOL">   -100.00000000   -100.00000000   -100.00000000</v>
    <i name="EFIELD">      0.00000000</i>
   </separator>
  </separator>
  <separator name="grids" >
   <i type="int" name="NGX">    64</i>
   <i type="int" name="NGY">    64</i>
   <i type="int" name="NGZ">    64</i>
   <i type="int" name="NGXF">   128</i>
   <i type="int" name="NGYF">   128</i>
   <i type="int" name="NGZF">   128</i>
   <i type="logical" name="ADDGRID"> T  </i>
  </separator>
  <separator name="ionic" >
   <i type="int" name="NSW">     0</i>
   <i type="int" name="IBRION">    -1</i>
   <i type="int" name="MDALGO">     0</i>
   <i type="int" name="ISIF">     2</i>
   <i name="PSTRESS">      0.00000000</i>
   <i name="EDIFFG">     -0.00000010</i>
   <i type="int" name="NFREE">     1</i>
   <i name="POTIM">      0.50000000</i>
   <i name="SMASS">     -3.00000000</i>
   <i name="SCALEE">      1.00000000</i>
  </separator>
  <separator name="ionic md" >
   <i name="TEBEG">      0.00010000</i>
   <i name="TEEND">      0.00010000</i>
   <i type="int" name="NBLOCK">     1</i>
   <i type="int" name="KBLOCK">     1</i>
   <i type="int" name="NPACO">   256</i>
   <i name="APACO">     10.00000000</i>
  </separator>
  <separator name="symmetry" >
   <i type="int" name="ISYM">     2</i>
   <i name="SYMPREC">      0.00001000</i>
  </separator>
  <separator name="dos" >
   <i type="int" name="LORBIT">    11</i>
   <v name="RWIGS">     -1.00000000</v>
   <i type="int" name="NEDOS">  1000</i>
   <i name="EMIN">     10.00000000</i>
   <i name="EMAX">    -10.00000000</i>
   <i name="EFERMI">      0.00000000</i>
  </separator>
  <separator name="writing" >
   <i type="int" name="NWRITE">     2</i>
   <i type="logical" name="LWAVE"> T  </i>
   <i type="logical" name="LDOWNSAMPLE"> F  </i>
   <i type="logical" name="LCHARG"> T  </i>
   <i type="logical" name="LPARD"> F  </i>
   <i type="logical" name="LVTOT"> F  </i>
   <i type="logical" name="LVHAR"> F  </i>
   <i type="logical" name="LELF"> F  </i>
   <i type="logical" name="LOPTICS"> F  </i>
   <v name="STM">      0.00000000      0.00000000      0.00000000      0.00000000      0.00000000      0.00000000      0.00000000</v>
  </separator>
  <separator name="performance" >
   <i type="int" name="NPAR">     8</i>
   <i type="int" name="NSIM">     4</i>
   <i type="int" name="NBLK">    -1</i>
   <i type="logical" name="LPLANE"> T  </i>
   <i type="logical" name="LSCALAPACK"> T  </i>
   <i type="logical" name="LSCAAWARE"> F  </i>
   <i type="logical" name="LSCALU"> F  </i>
   <i type="logical" name="LASYNC"> F  </i>
   <i type="logical" name="LORBITALREAL"> F  </i>
  </separator>
  <separator name="miscellaneous" >
   <i type="int" name="IDIOT">     3</i>
   <i type="int" name="PHON_NSTRUCT">    -1</i>
   <i type="logical" name="LMUSIC"> F  </i>
   <v name="POMASS">     28.08500000</v>
   <v name="DARWINR">      0.00000000</v>
   <v name="DARWINV">      1.00000000</v>
   <i type="logical" name="LCORR"> T  </i>
  </separator>
  <i type="logical" name="GGA_COMPAT"> T  </i>
  <i type="logical" name="LBERRY"> F  </i>
  <i type="int" name="ICORELEVEL">     1</i>
  <i type="int" name="CLNT">     1</i>
  <i type="int" name="CLN">     1</i>
  <i type="int" name="CLL">     0</i>
  <i name="CLZ">      0.00000000</i>
  <i type="logical" name="LDAU"> F  </i>
  <i type="int" name="I_CONSTRAINED_M">     0</i>
  <separator name="electronic exchange-correlation" >
   <i type="string" name="GGA">PS</i>
   <i type="int" name="VOSKOWN">     0</i>
   <i type="logical" name="LHFCALC"> F  </i>
   <i type="string" name="PRECFOCK"></i>
   <i type="logical" name="LSYMGRAD"> F  </i>
   <i type="logical" name="LHFONE"> F  </i>
   <i type="logical" name="LRHFCALC"> F  </i>
   <i type="logical" name="LTHOMAS"> F  </i>
   <i type="logical" name="LMODELHF"> F  </i>
   <i type="logical" name="LFOCKACE"> F  </i>
   <i name="ENCUT4O">     -1.00000000</i>
   <i type="int" name="EXXOEP">     0</i>
   <i type="int" name="FOURORBIT">     0</i>
   <i name="AEXX">      0.00000000</i>
   <i name="HFALPHA">      0.00000000</i>
   <i name="MCALPHA">      0.00000000</i>
   <i name="ALDAX">      1.00000000</i>
   <i name="AGGAX">      1.00000000</i>
   <i name="ALDAC">      1.00000000</i>
   <i name="AGGAC">      1.00000000</i>
   <i type="int" name="NKREDX">     1</i>
   <i type="int" name="NKREDY">     1</i>
   <i type="int" name="NKREDZ">     1</i>
   <i type="logical" name="SHIFTRED"> F  </i>
   <i type="logical" name="ODDONLY"> F  </i>
   <i type="logical" name="EVENONLY"> F  </i>
   <i type="int" name="LMAXFOCK">     0</i>
   <i type="int" name="NMAXFOCKAE">     0</i>
   <i type="logical" name="LFOCKAEDFT"> F  </i>
   <i name="HFSCREEN">      0.00000000</i>
   <i name="HFSCREENC">      0.00000000</i>
   <i type="int" name="NBANDSGWLOW">     0</i>
  </separator>
  <separator name="vdW DFT" >
   <i type="logical" name="LUSE_VDW"> F  </i>
   <i name="Zab_VDW">     -0.84910000</i>
   <i name="PARAM1">      0.12340000</i>
   <i name="PARAM2">      1.00000000</i>
   <i name="PARAM3">      0.00000000</i>
  </separator>
  <separator name="model GW" >
   <i type="int" name="MODEL_GW">     0</i>
   <i name="MODEL_EPS0">     12.04632288</i>
   <i name="MODEL_ALPHA">      1.00000000</i>
  </separator>
  <separator name="linear response parameters" >
   <i type="logical" name="LEPSILON"> F  </i>
   <i type="logical" name="LRPA"> F  </i>
   <i type="logical" name="LNABLA"> F  </i>
   <i type="logical" name="LVEL"> F  </i>
   <i name="CSHIFT">      0.10000000</i>
   <i name="OMEGAMAX">     -1.00000000</i>
   <i name="DEG_THRESHOLD">      0.00200000</i>
   <i name="RTIME">     -0.10000000</i>
   <i name="WPLASMAI">      0.00000000</i>
   <v name="DFIELD">      0.00000000      0.00000000      0.00000000</v>
   <v name="WPLASMA">      0.00000000      0.00000000      0.00000000      0.00000000      0.00000000      0.00000000      0.00000000      0.00000000      0.00000000</v>
  </separator>
  <separator name="orbital magnetization" >
   <i type="logical" name="NUCIND"> F  </i>
   <v name="MAGPOS">      0.00000000      0.00000000      0.00000000</v>
   <i type="logical" name="LNICSALL"> T  </i>
   <i type="logical" name="ORBITALMAG"> F  </i>
   <i type="logical" name="LMAGBLOCH"> F  </i>
   <i type="logical" name="LCHIMAG"> F  </i>
   <i type="logical" name="LGAUGE"> T  </i>
   <i type="int" name="MAGATOM">     0</i>
   <v name="MAGDIPOL">      0.00000000      0.00000000      0.00000000</v>
   <v name="AVECCONST">      0.00000000      0.00000000      0.00000000</v>
  </separator>
  <separator name="response functions" >
   <i type="logical" name="LFINITE_TEMPERATURE"> F  </i>
   <i type="logical" name="LADDER"> F  </i>
   <i type="logical" name="LRPAFORCE"> F  </i>
   <i type="logical" name="LFXC"> F  </i>
   <i type="logical" name="LHARTREE"> T  </i>
   <i type="int" name="IBSE">     0</i>
   <v type="int" name="KPOINT">    -1     0     0     0</v>
   <i type="logical" name="LTCTC"> F  </i>
   <i type="logical" name="LTCTE"> F  </i>
   <i type="logical" name="LTETE"> F  </i>
   <i type="logical" name="LTRIPLET"> F  </i>
   <i type="logical" name="LFXCEPS"> F  </i>
   <i type="logical" name="LFXHEG"> F  </i>
   <i type="int" name="NATURALO">     2</i>
   <i type="logical" name="LHOLEGF"> F  </i>
   <i type="logical" name="L2ORDER"> F  </i>
   <i type="logical" name="LDMP1"> F  </i>
   <i type="logical" name="LMP2LT"> F  </i>
   <i type="logical" name="LSMP2LT"> F  </i>
   <i type="logical" name="LGWLF"> F  </i>
   <i name="ENCUTGW">     -2.00000000</i>
   <i name="ENCUTGWSOFT">     -2.00000000</i>
   <i name="ENCUTLF">     -1.00000000</i>
   <i type="logical" name="LESF_SPLINES"> F  </i>
   <i type="int" name="LMAXMP2">    -1</i>
   <i name="SCISSOR">      0.00000000</i>
   <i type="int" name="NOMEGA">     0</i>
   <i type="int" name="NOMEGAR">     0</i>
   <i type="int" name="NBANDSGW">    -1</i>
   <i type="int" name="NBANDSO">    -1</i>
   <i type="int" name="NBANDSV">    -1</i>
   <i type="int" name="NELMGW">     1</i>
   <i type="int" name="NELMHF">     1</i>
   <i type="int" name="DIM">     3</i>
   <i type="int" name="IESPILON">     4</i>
   <i type="int" name="ANTIRES">     0</i>
   <i name="OMEGAMAX">    -30.00000000</i>
   <i name="OMEGAMIN">    -30.00000000</i>
   <i name="OMEGATL">   -200.00000000</i>
   <i type="int" name="OMEGAGRID">     0</i>
   <i name="CSHIFT">     -0.10000000</i>
   <i type="logical" name="LSELFENERGY"> F  </i>
   <i type="logical" name="LSPECTRAL"> F  </i>
   <i type="logical" name="LSPECTRALGW"> F  </i>
   <i type="logical" name="LSINGLES"> F  </i>
   <i type="logical" name="LFERMIGW"> F  </i>
   <i type="logical" name="ODDONLYGW"> F  </i>
   <i type="logical" name="EVENONLYGW"> F  </i>
   <i type="int" name="NKREDLFX">     1</i>
   <i type="int" name="NKREDLFY">     1</i>
   <i type="int" name="NKREDLFZ">     1</i>
   <i type="int" name="MAXMEM">  2800</i>
   <i type="int" name="TELESCOPE">     0</i>
   <i type="int" name="NTAUPAR">    -1</i>
   <i type="int" name="NOMEGAPAR">    -1</i>
   <i name="DAMP_NEWTON">      0.80000001</i>
   <i name="LAMBDA">      1.00000000</i>
  </separator>
  <separator name="External order field" >
   <i name="OFIELD_KAPPA">      0.00000000</i>
   <v name="OFIELD_K">      0.00000000      0.00000000      0.00000000</v>
   <i name="OFIELD_Q6_NEAR">      0.00000000</i>
   <i name="OFIELD_Q6_FAR">      0.00000000</i>
   <i name="OFIELD_A">      0.00000000</i>
  </separator>
  <separator name="optional k-points parameters" >
   <i type="int" name="KPOINTS_OPT_MODE">     1</i>
   <i type="logical" name="LKPOINTS_OPT"> F  </i>
  </separator>
 </parameters>
 <atominfo>
  <atoms>      16 </atoms>
  <types>       1 </types>
  <array name="atoms" >
   <dimension dim="1">ion</dimension>
   <field type="string">element</field>
   <field type="int">atomtype</field>
   <set>
    <rc><c>Si</c><c>   1</c></rc>
    <rc><c>Si</c><c>   1</c></rc>
    <rc><c>Si</c><c>   1</c></rc>
    <rc><c>Si</c><c>   1</c></rc>
    <rc><c>Si</c><c>   1</c></rc>
    <rc><c>Si</c><c>   1</c></rc>
    <rc><c>Si</c><c>   1</c></rc>
    <rc><c>Si</c><c>   1</c></rc>
    <rc><c>Si</c><c>   1</c></rc>
    <rc><c>Si</c><c>   1</c></rc>
    <rc><c>Si</c><c>   1</c></rc>
    <rc><c>Si</c><c>   1</c></rc>
    <rc><c>Si</c><c>   1</c></rc>
    <rc><c>Si</c><c>   1</c></rc>
    <rc><c>Si</c><c>   1</c></rc>
    <rc><c>Si</c><c>   1</c></rc>
   </set>
  </array>
  <array name="atomtypes" >
   <dimension dim="1">type</dimension>
   <field type="int">atomspertype</field>
   <field type="string">element</field>
   <field>mass</field>
   <field>valence</field>
   <field type="string">pseudopotential</field>
   <set>
    <rc><c>  16</c><c>Si</c><c>     28.08500000</c><c>      4.00000000</c><c>  PAW_PBE Si 05Jan2001                  </c></rc>
   </set>
  </array>
 </atominfo>
 <structure name="initialpos" >
  <crystal>
   <varray name="basis" >
    <v>       0.00000000       5.43581180       5.43581180 </v>
    <v>       5.43581180       0.00000000       5.43581180 </v>
    <v>       5.43581180       5.43581180       0.00000000 </v>
   </varray>
   <i name="volume">    321.23527682 </i>
   <varray name="rec_basis" >
    <v>      -0.09198258       0.09198258       0.09198258 </v>
    <v>       0.09198258      -0.09198258       0.09198258 </v>
    <v>       0.09198258       0.09198258      -0.09198258 </v>
   </varray>
  </crystal>
  <varray name="positions" >
   <v>       0.12500000       0.12500000       0.12500000 </v>
   <v>       0.62500000       0.12500000       0.12500000 </v>
   <v>       0.12500000       0.62500000       0.12500000 </v>
   <v>       0.62500000       0.62500000       0.12500000 </v>
   <v>       0.12500000       0.12500000       0.62500000 </v>
   <v>       0.62500000       0.12500000       0.62500000 </v>
   <v>       0.12500000       0.62500000       0.62500000 </v>
   <v>       0.62500000       0.62500000       0.62500000 </v>
   <v>       0.00000000       0.00000000       0.00000000 </v>
   <v>       0.50000000       0.00000000       0.00000000 </v>
   <v>       0.00000000       0.50000000       0.00000000 </v>
   <v>       0.50000000       0.50000000       0.00000000 </v>
   <v>       0.00000000       0.00000000       0.50000000 </v>
   <v>       0.50000000       0.00000000       0.50000000 </v>
   <v>       0.00000000       0.50000000       0.50000000 </v>
   <v>       0.50000000       0.50000000       0.50000000 </v>
  </varray>
 </structure>
 <calculation>
  <scstep>
   <time name="dav">    0.66    0.83</time>
   <time name="total">    0.76    0.94</time>
   <energy>
    <i name="alphaZ">     26.82694619 </i>
    <i name="ewald">  -1826.55336167 </i>
    <i name="hartreedc">    -88.39437999 </i>
    <i name="XCdc">   -139.73341060 </i>
    <i name="pawpsdc">   1399.65656354 </i>
    <i name="pawaedc">  -1123.04461034 </i>
    <i name="eentropy">     -0.00054793 </i>
    <i name="bandstr">    264.62296490 </i>
    <i name="atom">   1641.21197842 </i>
    <i name="e_fr_energy">    154.59214253 </i>
    <i name="e_wo_entrp">    154.59269046 </i>
    <i name="e_0_energy">    154.59241649 </i>
   </energy>
  </scstep>
  <scstep>
   <time name="dav">    0.63    0.65</time>
   <time name="total">    0.63    0.65</time>
   <energy>
    <i name="e_fr_energy">    -79.40090583 </i>
    <i name="e_wo_entrp">    -79.40090583 </i>
    <i name="e_0_energy">    -79.40090583 </i>
   </energy>
  </scstep>
  <scstep>
   <time name="dav">    0.68    0.70</time>
   <time name="total">    0.68    0.70</time>
   <energy>
    <i name="e_fr_energy">    -93.40696636 </i>
    <i name="e_wo_entrp">    -93.40696636 </i>
    <i name="e_0_energy">    -93.40696636 </i>
   </energy>
  </scstep>
  <scstep>
   <time name="dav">    0.64    0.65</time>
   <time name="total">    0.64    0.66</time>
   <energy>
    <i name="e_fr_energy">    -93.70994854 </i>
    <i name="e_wo_entrp">    -93.70994854 </i>
    <i name="e_0_energy">    -93.70994854 </i>
   </energy>
  </scstep>
  <scstep>
   <time name="dav">    0.64    0.65</time>
   <time name="total">    0.93    0.94</time>
   <energy>
    <i name="e_fr_energy">    -93.71746928 </i>
    <i name="e_wo_entrp">    -93.71746928 </i>
    <i name="e_0_energy">    -93.71746928 </i>
   </energy>
  </scstep>
  <scstep>
   <time name="diag">    0.19    0.19</time>
   <time name="diis">    0.30    0.30</time>
   <time name="orth">    0.01    0.01</time>
   <time name="total">    0.86    0.88</time>
   <energy>
    <i name="e_fr_energy">    -92.49290129 </i>
    <i name="e_wo_entrp">    -92.49290129 </i>
    <i name="e_0_energy">    -92.49290129 </i>
   </energy>
  </scstep>
  <scstep>
   <time name="diag">    0.18    0.18</time>
   <time name="diis">    0.31    0.31</time>
   <time name="orth">    0.01    0.01</time>
   <time name="total">    0.87    0.88</time>
   <energy>
    <i name="e_fr_energy">    -91.93163115 </i>
    <i name="e_wo_entrp">    -91.93163115 </i>
    <i name="e_0_energy">    -91.93163115 </i>
   </energy>
  </scstep>
  <scstep>
   <time name="diag">    0.18    0.18</time>
   <time name="diis">    0.32    0.32</time>
   <time name="orth">    0.01    0.01</time>
   <time name="total">    0.88    0.89</time>
   <energy>
    <i name="e_fr_energy">    -91.94175444 </i>
    <i name="e_wo_entrp">    -91.94175444 </i>
    <i name="e_0_energy">    -91.94175444 </i>
   </energy>
  </scstep>
  <scstep>
   <time name="diag">    0.18    0.18</time>
   <time name="diis">    0.34    0.34</time>
   <time name="orth">    0.01    0.01</time>
   <time name="total">    0.90    0.90</time>
   <energy>
    <i name="e_fr_energy">    -91.94515043 </i>
    <i name="e_wo_entrp">    -91.94515043 </i>
    <i name="e_0_energy">    -91.94515043 </i>
   </energy>
  </scstep>
  <scstep>
   <time name="diag">    0.18    0.18</time>
   <time name="diis">    0.35    0.35</time>
   <time name="orth">    0.01    0.01</time>
   <time name="total">    0.90    0.92</time>
   <energy>
    <i name="e_fr_energy">    -91.94569189 </i>
    <i name="e_wo_entrp">    -91.94569189 </i>
    <i name="e_0_energy">    -91.94569189 </i>
   </energy>
  </scstep>
  <scstep>
   <time name="diag">    0.18    0.18</time>
   <time name="diis">    0.33    0.33</time>
   <time name="orth">    0.01    0.01</time>
   <time name="total">    0.90    0.90</time>
   <energy>
    <i name="e_fr_energy">    -91.94481019 </i>
    <i name="e_wo_entrp">    -91.94481019 </i>
    <i name="e_0_energy">    -91.94481019 </i>
   </energy>
  </scstep>
  <scstep>
   <time name="diag">    0.18    0.18</time>
   <time name="diis">    0.33    0.33</time>
   <time name="orth">    0.01    0.01</time>
   <time name="total">    0.88    0.90</time>
   <energy>
    <i name="e_fr_energy">    -91.94576658 </i>
    <i name="e_wo_entrp">    -91.94576658 </i>
    <i name="e_0_energy">    -91.94576658 </i>
   </energy>
  </scstep>
  <scstep>
   <time name="diag">    0.18    0.18</time>
   <time name="diis">    0.33    0.33</time>
   <time name="orth">    0.01    0.01</time>
   <time name="total">    0.90    0.90</time>
   <energy>
    <i name="e_fr_energy">    -91.94584827 </i>
    <i name="e_wo_entrp">    -91.94584827 </i>
    <i name="e_0_energy">    -91.94584827 </i>
   </energy>
  </scstep>
  <scstep>
   <time name="diag">    0.18    0.18</time>
   <time name="diis">    0.36    0.36</time>
   <time name="orth">    0.01    0.01</time>
   <time name="total">    0.92    0.93</time>
   <energy>
    <i name="e_fr_energy">    -91.94585559 </i>
    <i name="e_wo_entrp">    -91.94585559 </i>
    <i name="e_0_energy">    -91.94585559 </i>
   </energy>
  </scstep>
  <scstep>
   <time name="diag">    0.18    0.18</time>
   <time name="diis">    0.34    0.34</time>
   <time name="orth">    0.01    0.01</time>
   <time name="total">    0.91    0.91</time>
   <energy>
    <i name="e_fr_energy">    -91.94585585 </i>
    <i name="e_wo_entrp">    -91.94585585 </i>
    <i name="e_0_energy">    -91.94585585 </i>
   </energy>
  </scstep>
  <scstep>
   <time name="diag">    0.18    0.18</time>
   <time name="diis">    0.37    0.37</time>
   <time name="orth">    0.01    0.01</time>
   <time name="total">    0.92    0.94</time>
   <energy>
    <i name="e_fr_energy">    -91.94585685 </i>
    <i name="e_wo_entrp">    -91.94585685 </i>
    <i name="e_0_energy">    -91.94585685 </i>
   </energy>
  </scstep>
  <scstep>
   <time name="diag">    0.18    0.18</time>
   <time name="diis">    0.33    0.33</time>
   <time name="orth">    0.01    0.01</time>
   <time name="total">    0.90    0.90</time>
   <energy>
    <i name="e_fr_energy">    -91.94585664 </i>
    <i name="e_wo_entrp">    -91.94585664 </i>
    <i name="e_0_energy">    -91.94585664 </i>
   </energy>
  </scstep>
  <scstep>
   <time name="diag">    0.18    0.18</time>
   <time name="diis">    0.34    0.34</time>
   <time name="orth">    0.01    0.01</time>
   <time name="total">    0.90    0.91</time>
   <energy>
    <i name="e_fr_energy">    -91.94585667 </i>
    <i name="e_wo_entrp">    -91.94585667 </i>
    <i name="e_0_energy">    -91.94585667 </i>
   </energy>
  </scstep>
  <scstep>
   <time name="diag">    0.18    0.18</time>
   <time name="diis">    0.28    0.28</time>
   <time name="orth">    0.01    0.01</time>
   <time name="total">    0.84    0.84</time>
   <energy>
    <i name="e_fr_energy">    -91.94585665 </i>
    <i name="e_wo_entrp">    -91.94585665 </i>
    <i name="e_0_energy">    -91.94585665 </i>
   </energy>
  </scstep>
  <scstep>
   <time name="diag">    0.18    0.18</time>
   <time name="diis">    0.24    0.24</time>
   <time name="orth">    0.01    0.01</time>
   <time name="total">    0.79    0.80</time>
   <energy>
    <i name="e_fr_energy">    -91.94585666 </i>
    <i name="e_wo_entrp">    -91.94585666 </i>
    <i name="e_0_energy">    -91.94585666 </i>
   </energy>
  </scstep>
  <scstep>
   <time name="diag">    0.17    0.17</time>
   <time name="diis">    0.22    0.22</time>
   <time name="orth">    0.01    0.01</time>
   <time name="total">    0.79    0.79</time>
   <energy>
    <i name="e_fr_energy">    -91.94585669 </i>
    <i name="e_wo_entrp">    -91.94585669 </i>
    <i name="e_0_energy">    -91.94585669 </i>
   </energy>
  </scstep>
  <scstep>
   <time name="diag">    0.17    0.17</time>
   <time name="diis">    0.20    0.20</time>
   <time name="orth">    0.01    0.01</time>
   <time name="total">    0.50    0.51</time>
   <energy>
    <i name="alphaZ">     26.82694619 </i>
    <i name="ewald">  -1826.55336167 </i>
    <i name="hartreedc">   -117.12729693 </i>
    <i name="XCdc">   -134.89721550 </i>
    <i name="pawpsdc">   6908.02252220 </i>
    <i name="pawaedc">  -6633.10938007 </i>
    <i name="eentropy">     -0.00000000 </i>
    <i name="bandstr">     43.67995067 </i>
    <i name="atom">   1641.21197842 </i>
    <i name="e_fr_energy">    -91.94585669 </i>
    <i name="e_wo_entrp">    -91.94585669 </i>
    <i name="e_0_energy">    -91.94585669 </i>
   </energy>
  </scstep>
  <structure>
   <crystal>
    <varray name="basis" >
     <v>       0.00000000       5.43581180       5.43581180 </v>
     <v>       5.43581180       0.00000000       5.43581180 </v>
     <v>       5.43581180       5.43581180       0.00000000 </v>
    </varray>
    <i name="volume">    321.23527682 </i>
    <varray name="rec_basis" >
     <v>      -0.09198258       0.09198258       0.09198258 </v>
     <v>       0.09198258      -0.09198258       0.09198258 </v>
     <v>       0.09198258       0.09198258      -0.09198258 </v>
    </varray>
   </crystal>
   <varray name="positions" >
    <v>       0.12500000       0.12500000       0.12500000 </v>
    <v>       0.62500000       0.12500000       0.12500000 </v>
    <v>       0.12500000       0.62500000       0.12500000 </v>
    <v>       0.62500000       0.62500000       0.12500000 </v>
    <v>       0.12500000       0.12500000       0.62500000 </v>
    <v>       0.62500000       0.12500000       0.62500000 </v>
    <v>       0.12500000       0.62500000       0.62500000 </v>
    <v>       0.62500000       0.62500000       0.62500000 </v>
    <v>       0.00000000       0.00000000       0.00000000 </v>
    <v>       0.50000000       0.00000000       0.00000000 </v>
    <v>       0.00000000       0.50000000       0.00000000 </v>
    <v>       0.50000000       0.50000000       0.00000000 </v>
    <v>       0.00000000       0.00000000       0.50000000 </v>
    <v>       0.50000000       0.00000000       0.50000000 </v>
    <v>       0.00000000       0.50000000       0.50000000 </v>
    <v>       0.50000000       0.50000000       0.50000000 </v>
   </varray>
  </structure>
  <varray name="forces" >
   <v>      -0.00000000      -0.00000000       0.00000000 </v>
   <v>      -0.00000000       0.00000000       0.00000000 </v>
   <v>      -0.00000000      -0.00000000       0.00000000 </v>
   <v>      -0.00000000      -0.00000000       0.00000000 </v>
   <v>      -0.00000000      -0.00000000      -0.00000000 </v>
   <v>      -0.00000000      -0.00000000       0.00000000 </v>
   <v>      -0.00000000      -0.00000000       0.00000000 </v>
   <v>      -0.00000000      -0.00000000       0.00000000 </v>
   <v>       0.00000000       0.00000000      -0.00000000 </v>
   <v>       0.00000000       0.00000000      -0.00000000 </v>
   <v>       0.00000000       0.00000000      -0.00000000 </v>
   <v>       0.00000000      -0.00000000      -0.00000000 </v>
   <v>       0.00000000       0.00000000       0.00000000 </v>
   <v>       0.00000000       0.00000000      -0.00000000 </v>
   <v>       0.00000000       0.00000000      -0.00000000 </v>
   <v>       0.00000000       0.00000000      -0.00000000 </v>
  </varray>
  <varray name="stress" >
   <v>      -0.02157260       0.00000000       0.00000000 </v>
   <v>      -0.00000000      -0.02157260       0.00000000 </v>
   <v>      -0.00000000      -0.00000000      -0.02157260 </v>
  </varray>
  <energy>
   <i name="e_fr_energy">    -91.94585669 </i>
   <i name="e_wo_entrp">    -91.94585669 </i>
   <i name="e_0_energy">    -91.94585669 </i>
  </energy>
  <time name="totalsc">   24.57   24.98</time>
  <eigenvalues>
   <array>
    <dimension dim="1">band</dimension>
    <dimension dim="2">kpoint</dimension>
    <dimension dim="3">spin</dimension>
    <field>eigene</field>
    <field>occ</field>
    <set>
     <set comment="spin 1">
      <set comment="kpoint 1">
       <r>   -6.2095    1.0000 </r>
       <r>   -3.8669    1.0000 </r>
       <r>   -3.8669    1.0000 </r>
       <r>   -3.8669    1.0000 </r>
       <r>   -3.8669    1.0000 </r>
       <r>   -2.0590    1.0000 </r>
       <r>   -2.0590    1.0000 </r>
       <r>   -2.0590    1.0000 </r>
       <r>   -2.0590    1.0000 </r>
       <r>   -2.0590    1.0000 </r>
       <r>   -2.0590    1.0000 </r>
       <r>   -1.2403    1.0000 </r>
       <r>   -1.2403    1.0000 </r>
       <r>   -1.2403    1.0000 </r>
       <r>   -1.2403    1.0000 </r>
       <r>    2.8944    1.0000 </r>
       <r>    2.8944    1.0000 </r>
       <r>    2.8944    1.0000 </r>
       <r>    2.8944    1.0000 </r>
       <r>    2.8944    1.0000 </r>
       <r>    2.8944    1.0000 </r>
       <r>    4.5603    1.0000 </r>
       <r>    4.5603    1.0000 </r>
       <r>    4.5603    1.0000 </r>
       <r>    4.5603    1.0000 </r>
       <r>    4.5603    1.0000 </r>
       <r>    4.5603    1.0000 </r>
       <r>    4.5603    1.0000 </r>
       <r>    4.5603    1.0000 </r>
       <r>    5.7613    1.0000 </r>
       <r>    5.7613    1.0000 </r>
       <r>    5.7613    1.0000 </r>
       <r>    6.3562    0.0000 </r>
       <r>    6.3562    0.0000 </r>
       <r>    6.3562    0.0000 </r>
       <r>    6.3562    0.0000 </r>
       <r>    6.3562    0.0000 </r>
       <r>    6.3562    0.0000 </r>
       <r>    7.2171    0.0000 </r>
       <r>    7.2171    0.0000 </r>
       <r>    7.2171    0.0000 </r>
       <r>    7.2171    0.0000 </r>
       <r>    8.2776    0.0000 </r>
       <r>    8.2776    0.0000 </r>
       <r>    8.2776    0.0000 </r>
       <r>    9.0357    0.0000 </r>
       <r>    9.0357    0.0000 </r>
       <r>    9.0494    0.0000 </r>
      </set>
      <set comment="kpoint 2">
       <r>   -6.1184    1.0000 </r>
       <r>   -4.2049    1.0000 </r>
       <r>   -3.8301    1.0000 </r>
       <r>   -3.8301    1.0000 </r>
       <r>   -3.8301    1.0000 </r>
       <r>   -2.6564    1.0000 </r>
       <r>   -2.6564    1.0000 </r>
       <r>   -2.6564    1.0000 </r>
       <r>   -1.3908    1.0000 </r>
       <r>   -1.3908    1.0000 </r>
       <r>   -1.3908    1.0000 </r>
       <r>   -1.1349    1.0000 </r>
       <r>   -1.1349    1.0000 </r>
       <r>   -1.1349    1.0000 </r>
       <r>   -0.7307    1.0000 </r>
       <r>    2.5607    1.0000 </r>
       <r>    2.5607    1.0000 </r>
       <r>    2.5607    1.0000 </r>
       <r>    2.9705    1.0000 </r>
       <r>    2.9705    1.0000 </r>
       <r>    2.9705    1.0000 </r>
       <r>    3.9659    1.0000 </r>
       <r>    3.9659    1.0000 </r>
       <r>    3.9659    1.0000 </r>
       <r>    4.3805    1.0000 </r>
       <r>    4.3805    1.0000 </r>
       <r>    4.3805    1.0000 </r>
       <r>    4.6098    1.0000 </r>
       <r>    4.6098    1.0000 </r>
       <r>    4.8935    1.0000 </r>
       <r>    5.6159    1.0000 </r>
       <r>    5.6159    1.0000 </r>
       <r>    6.4218    0.0000 </r>
       <r>    6.4218    0.0000 </r>
       <r>    6.4218    0.0000 </r>
       <r>    6.9972    0.0000 </r>
       <r>    6.9972    0.0000 </r>
       <r>    6.9972    0.0000 </r>
       <r>    7.2745    0.0000 </r>
       <r>    7.7352    0.0000 </r>
       <r>    7.7352    0.0000 </r>
       <r>    7.7352    0.0000 </r>
       <r>    8.3125    0.0000 </r>
       <r>    8.4906    0.0000 </r>
       <r>    8.4906    0.0000 </r>
       <r>    8.9526    0.0000 </r>
       <r>    8.9530    0.0000 </r>
       <r>    8.9533    0.0000 </r>
      </set>
      <set comment="kpoint 3">
       <r>   -5.8478    1.0000 </r>
       <r>   -4.8293    1.0000 </r>
       <r>   -3.7097    1.0000 </r>
       <r>   -3.7097    1.0000 </r>
       <r>   -3.7097    1.0000 </r>
       <r>   -3.1351    1.0000 </r>
       <r>   -3.1351    1.0000 </r>
       <r>   -3.1351    1.0000 </r>
       <r>   -0.8671    1.0000 </r>
       <r>   -0.8671    1.0000 </r>
       <r>   -0.8671    1.0000 </r>
       <r>   -0.8060    1.0000 </r>
       <r>   -0.8060    1.0000 </r>
       <r>   -0.8060    1.0000 </r>
       <r>    0.4038    1.0000 </r>
       <r>    2.0912    1.0000 </r>
       <r>    2.0912    1.0000 </r>
       <r>    2.0912    1.0000 </r>
       <r>    2.9590    1.0000 </r>
       <r>    2.9590    1.0000 </r>
       <r>    2.9590    1.0000 </r>
       <r>    3.1936    1.0000 </r>
       <r>    3.1936    1.0000 </r>
       <r>    3.1936    1.0000 </r>
       <r>    3.3645    1.0000 </r>
       <r>    3.9760    1.0000 </r>
       <r>    3.9760    1.0000 </r>
       <r>    3.9760    1.0000 </r>
       <r>    4.7576    1.0000 </r>
       <r>    4.7576    1.0000 </r>
       <r>    5.3074    1.0000 </r>
       <r>    5.3074    1.0000 </r>
       <r>    6.7152    0.0000 </r>
       <r>    6.7152    0.0000 </r>
       <r>    6.7152    0.0000 </r>
       <r>    7.4440    0.0000 </r>
       <r>    7.7122    0.0000 </r>
       <r>    7.7122    0.0000 </r>
       <r>    7.7122    0.0000 </r>
       <r>    8.0425    0.0000 </r>
       <r>    8.3834    0.0000 </r>
       <r>    8.3834    0.0000 </r>
       <r>    8.3834    0.0000 </r>
       <r>    8.9273    0.0000 </r>
       <r>    8.9273    0.0000 </r>
       <r>    9.2101    0.0000 </r>
       <r>    9.2101    0.0000 </r>
       <r>    9.8053    0.0000 </r>
      </set>
      <set comment="kpoint 4">
       <r>   -5.4083    1.0000 </r>
       <r>   -5.4083    1.0000 </r>
       <r>   -3.4840    1.0000 </r>
       <r>   -3.4840    1.0000 </r>
       <r>   -3.4840    1.0000 </r>
       <r>   -3.4840    1.0000 </r>
       <r>   -3.4840    1.0000 </r>
       <r>   -3.4840    1.0000 </r>
       <r>   -0.6321    1.0000 </r>
       <r>   -0.6321    1.0000 </r>
       <r>   -0.6321    1.0000 </r>
       <r>   -0.6321    1.0000 </r>
       <r>   -0.6321    1.0000 </r>
       <r>   -0.6321    1.0000 </r>
       <r>    1.8144    1.0000 </r>
       <r>    1.8144    1.0000 </r>
       <r>    2.1914    1.0000 </r>
       <r>    2.1914    1.0000 </r>
       <r>    2.1914    1.0000 </r>
       <r>    2.1914    1.0000 </r>
       <r>    2.1914    1.0000 </r>
       <r>    2.1914    1.0000 </r>
       <r>    3.5444    1.0000 </r>
       <r>    3.5444    1.0000 </r>
       <r>    3.5444    1.0000 </r>
       <r>    3.5444    1.0000 </r>
       <r>    3.5444    1.0000 </r>
       <r>    3.5444    1.0000 </r>
       <r>    4.9977    1.0000 </r>
       <r>    4.9977    1.0000 </r>
       <r>    4.9977    1.0000 </r>
       <r>    4.9977    1.0000 </r>
       <r>    7.1782    0.0000 </r>
       <r>    7.1782    0.0000 </r>
       <r>    7.1782    0.0000 </r>
       <r>    7.1782    0.0000 </r>
       <r>    7.1782    0.0000 </r>
       <r>    7.1782    0.0000 </r>
       <r>    7.7130    0.0000 </r>
       <r>    7.7130    0.0000 </r>
       <r>    9.2173    0.0000 </r>
       <r>    9.2173    0.0000 </r>
       <r>    9.2173    0.0000 </r>
       <r>    9.2173    0.0000 </r>
       <r>   10.1171    0.0000 </r>
       <r>   10.1171    0.0000 </r>
       <r>   10.1171    0.0000 </r>
       <r>   10.1171    0.0000 </r>
      </set>
      <set comment="kpoint 5">
       <r>   -6.0879    1.0000 </r>
       <r>   -3.9525    1.0000 </r>
       <r>   -3.9525    1.0000 </r>
       <r>   -3.9525    1.0000 </r>
       <r>   -3.9525    1.0000 </r>
       <r>   -3.2714    1.0000 </r>
       <r>   -2.0198    1.0000 </r>
       <r>   -2.0198    1.0000 </r>
       <r>   -2.0198    1.0000 </r>
       <r>   -2.0198    1.0000 </r>
       <r>   -0.9556    1.0000 </r>
       <r>   -0.9556    1.0000 </r>
       <r>   -0.9556    1.0000 </r>
       <r>   -0.9556    1.0000 </r>
       <r>   -0.7026    1.0000 </r>
       <r>    2.5767    1.0000 </r>
       <r>    2.5767    1.0000 </r>
       <r>    2.5767    1.0000 </r>
       <r>    2.5767    1.0000 </r>
       <r>    3.0041    1.0000 </r>
       <r>    3.0041    1.0000 </r>
       <r>    3.8693    1.0000 </r>
       <r>    3.8693    1.0000 </r>
       <r>    3.8693    1.0000 </r>
       <r>    3.8693    1.0000 </r>
       <r>    4.5252    1.0000 </r>
       <r>    4.5252    1.0000 </r>
       <r>    4.5252    1.0000 </r>
       <r>    4.5252    1.0000 </r>
       <r>    5.0629    1.0000 </r>
       <r>    5.3253    1.0000 </r>
       <r>    5.3253    1.0000 </r>
       <r>    6.2229    0.0000 </r>
       <r>    6.8198    0.0000 </r>
       <r>    6.9809    0.0000 </r>
       <r>    6.9809    0.0000 </r>
       <r>    6.9809    0.0000 </r>
       <r>    6.9809    0.0000 </r>
       <r>    7.7630    0.0000 </r>
       <r>    7.7630    0.0000 </r>
       <r>    7.7630    0.0000 </r>
       <r>    7.7630    0.0000 </r>
       <r>    7.9908    0.0000 </r>
       <r>    8.8619    0.0000 </r>
       <r>    8.8619    0.0000 </r>
       <r>    9.0691    0.0000 </r>
       <r>    9.0692    0.0000 </r>
       <r>    9.0692    0.0000 </r>
      </set>
      <set comment="kpoint 6">
       <r>   -5.8766    1.0000 </r>
       <r>   -4.5389    1.0000 </r>
       <r>   -3.9674    1.0000 </r>
       <r>   -3.9674    1.0000 </r>
       <r>   -3.7666    1.0000 </r>
       <r>   -3.5937    1.0000 </r>
       <r>   -2.5614    1.0000 </r>
       <r>   -2.5614    1.0000 </r>
       <r>   -1.3814    1.0000 </r>
       <r>   -1.3814    1.0000 </r>
       <r>   -1.0287    1.0000 </r>
       <r>   -0.6221    1.0000 </r>
       <r>   -0.6221    1.0000 </r>
       <r>   -0.0368    1.0000 </r>
       <r>    0.0221    1.0000 </r>
       <r>    1.9696    1.0000 </r>
       <r>    1.9696    1.0000 </r>
       <r>    2.7432    1.0000 </r>
       <r>    2.7659    1.0000 </r>
       <r>    2.7659    1.0000 </r>
       <r>    2.8331    1.0000 </r>
       <r>    3.1756    1.0000 </r>
       <r>    3.1756    1.0000 </r>
       <r>    3.1869    1.0000 </r>
       <r>    3.8223    1.0000 </r>
       <r>    3.8953    1.0000 </r>
       <r>    4.1619    1.0000 </r>
       <r>    4.1962    1.0000 </r>
       <r>    4.1962    1.0000 </r>
       <r>    4.7662    1.0000 </r>
       <r>    4.9590    1.0000 </r>
       <r>    5.1510    1.0000 </r>
       <r>    6.5472    0.0000 </r>
       <r>    7.1732    0.0000 </r>
       <r>    7.1732    0.0000 </r>
       <r>    7.5125    0.0000 </r>
       <r>    7.8602    0.0000 </r>
       <r>    7.8975    0.0000 </r>
       <r>    8.0079    0.0000 </r>
       <r>    8.2932    0.0000 </r>
       <r>    8.2932    0.0000 </r>
       <r>    8.3081    0.0000 </r>
       <r>    8.3081    0.0000 </r>
       <r>    8.8806    0.0000 </r>
       <r>    8.8806    0.0000 </r>
       <r>    8.9367    0.0000 </r>
       <r>    9.2525    0.0000 </r>
       <r>    9.2853    0.0000 </r>
      </set>
      <set comment="kpoint 7">
       <r>   -5.4919    1.0000 </r>
       <r>   -5.1493    1.0000 </r>
       <r>   -4.1116    1.0000 </r>
       <r>   -3.8528    1.0000 </r>
       <r>   -3.8528    1.0000 </r>
       <r>   -3.1564    1.0000 </r>
       <r>   -3.0022    1.0000 </r>
       <r>   -3.0022    1.0000 </r>
       <r>   -1.0510    1.0000 </r>
       <r>   -0.9813    1.0000 </r>
       <r>   -0.9813    1.0000 </r>
       <r>   -0.2770    1.0000 </r>
       <r>   -0.2770    1.0000 </r>
       <r>    0.2992    1.0000 </r>
       <r>    1.3408    1.0000 </r>
       <r>    1.7709    1.0000 </r>
       <r>    1.7709    1.0000 </r>
       <r>    1.8252    1.0000 </r>
       <r>    2.3154    1.0000 </r>
       <r>    2.5070    1.0000 </r>
       <r>    2.5070    1.0000 </r>
       <r>    2.7431    1.0000 </r>
       <r>    3.1185    1.0000 </r>
       <r>    3.1185    1.0000 </r>
       <r>    3.5048    1.0000 </r>
       <r>    3.6175    1.0000 </r>
       <r>    3.6175    1.0000 </r>
       <r>    3.7259    1.0000 </r>
       <r>    4.0540    1.0000 </r>
       <r>    4.6455    1.0000 </r>
       <r>    4.8244    1.0000 </r>
       <r>    5.0776    1.0000 </r>
       <r>    7.0942    0.0000 </r>
       <r>    7.3592    0.0000 </r>
       <r>    7.5439    0.0000 </r>
       <r>    7.5439    0.0000 </r>
       <r>    7.9155    0.0000 </r>
       <r>    7.9155    0.0000 </r>
       <r>    8.1261    0.0000 </r>
       <r>    8.1292    0.0000 </r>
       <r>    8.9141    0.0000 </r>
       <r>    8.9245    0.0000 </r>
       <r>    9.1780    0.0000 </r>
       <r>    9.4454    0.0000 </r>
       <r>    9.7837    0.0000 </r>
       <r>    9.8947    0.0000 </r>
       <r>    9.9014    0.0000 </r>
       <r>    9.9719    0.0000 </r>
      </set>
      <set comment="kpoint 8">
       <r>   -5.6393    1.0000 </r>
       <r>   -4.9544    1.0000 </r>
       <r>   -4.2976    1.0000 </r>
       <r>   -3.5955    1.0000 </r>
       <r>   -3.5955    1.0000 </r>
       <r>   -3.3514    1.0000 </r>
       <r>   -3.3514    1.0000 </r>
       <r>   -2.6615    1.0000 </r>
       <r>   -1.3002    1.0000 </r>
       <r>   -0.9895    1.0000 </r>
       <r>   -0.9895    1.0000 </r>
       <r>   -0.2628    1.0000 </r>
       <r>   -0.2628    1.0000 </r>
       <r>    0.0729    1.0000 </r>
       <r>    0.8750    1.0000 </r>
       <r>    1.5041    1.0000 </r>
       <r>    2.2599    1.0000 </r>
       <r>    2.2599    1.0000 </r>
       <r>    2.2985    1.0000 </r>
       <r>    2.2985    1.0000 </r>
       <r>    2.8041    1.0000 </r>
       <r>    3.1103    1.0000 </r>
       <r>    3.1103    1.0000 </r>
       <r>    3.3056    1.0000 </r>
       <r>    3.3484    1.0000 </r>
       <r>    3.5994    1.0000 </r>
       <r>    3.5994    1.0000 </r>
       <r>    3.9208    1.0000 </r>
       <r>    4.3579    1.0000 </r>
       <r>    4.4364    1.0000 </r>
       <r>    4.4693    1.0000 </r>
       <r>    5.4082    1.0000 </r>
       <r>    6.8925    0.0000 </r>
       <r>    7.3925    0.0000 </r>
       <r>    7.3925    0.0000 </r>
       <r>    7.6818    0.0000 </r>
       <r>    7.9821    0.0000 </r>
       <r>    8.0436    0.0000 </r>
       <r>    8.0436    0.0000 </r>
       <r>    8.4142    0.0000 </r>
       <r>    8.6729    0.0000 </r>
       <r>    8.6729    0.0000 </r>
       <r>    8.8836    0.0000 </r>
       <r>    8.9979    0.0000 </r>
       <r>    9.2395    0.0000 </r>
       <r>    9.6212    0.0000 </r>
       <r>    9.6262    0.0000 </r>
       <r>    9.8249    0.0000 </r>
      </set>
      <set comment="kpoint 9">
       <r>   -5.9672    1.0000 </r>
       <r>   -4.3257    1.0000 </r>
       <r>   -4.3257    1.0000 </r>
       <r>   -3.6252    1.0000 </r>
       <r>   -3.6252    1.0000 </r>
       <r>   -3.1932    1.0000 </r>
       <r>   -3.1932    1.0000 </r>
       <r>   -2.1961    1.0000 </r>
       <r>   -1.7968    1.0000 </r>
       <r>   -1.1247    1.0000 </r>
       <r>   -1.1247    1.0000 </r>
       <r>   -0.7382    1.0000 </r>
       <r>   -0.7382    1.0000 </r>
       <r>   -0.3597    1.0000 </r>
       <r>   -0.3597    1.0000 </r>
       <r>    1.8753    1.0000 </r>
       <r>    2.6114    1.0000 </r>
       <r>    2.6114    1.0000 </r>
       <r>    2.8109    1.0000 </r>
       <r>    2.8109    1.0000 </r>
       <r>    3.0883    1.0000 </r>
       <r>    3.1404    1.0000 </r>
       <r>    3.1404    1.0000 </r>
       <r>    4.1038    1.0000 </r>
       <r>    4.1038    1.0000 </r>
       <r>    4.1620    1.0000 </r>
       <r>    4.1720    1.0000 </r>
       <r>    4.1720    1.0000 </r>
       <r>    4.3480    1.0000 </r>
       <r>    4.3480    1.0000 </r>
       <r>    4.8839    1.0000 </r>
       <r>    5.6443    1.0000 </r>
       <r>    6.5814    0.0000 </r>
       <r>    6.8848    0.0000 </r>
       <r>    6.8848    0.0000 </r>
       <r>    7.3869    0.0000 </r>
       <r>    7.3869    0.0000 </r>
       <r>    7.8154    0.0000 </r>
       <r>    7.8154    0.0000 </r>
       <r>    8.2108    0.0000 </r>
       <r>    8.2735    0.0000 </r>
       <r>    8.2735    0.0000 </r>
       <r>    8.5267    0.0000 </r>
       <r>    8.6422    0.0000 </r>
       <r>    8.6724    0.0000 </r>
       <r>    8.7904    0.0000 </r>
       <r>    8.7920    0.0000 </r>
       <r>    8.9554    0.0000 </r>
      </set>
      <set comment="kpoint 10">
       <r>   -5.7247    1.0000 </r>
       <r>   -4.3025    1.0000 </r>
       <r>   -4.0975    1.0000 </r>
       <r>   -4.0975    1.0000 </r>
       <r>   -4.0975    1.0000 </r>
       <r>   -4.0975    1.0000 </r>
       <r>   -1.9357    1.0000 </r>
       <r>   -1.9357    1.0000 </r>
       <r>   -1.9357    1.0000 </r>
       <r>   -1.9357    1.0000 </r>
       <r>   -0.2641    1.0000 </r>
       <r>   -0.2641    1.0000 </r>
       <r>   -0.2641    1.0000 </r>
       <r>   -0.2641    1.0000 </r>
       <r>    0.7490    1.0000 </r>
       <r>    2.0777    1.0000 </r>
       <r>    2.0777    1.0000 </r>
       <r>    2.0777    1.0000 </r>
       <r>    2.0777    1.0000 </r>
       <r>    2.6846    1.0000 </r>
       <r>    2.6846    1.0000 </r>
       <r>    2.6846    1.0000 </r>
       <r>    2.6846    1.0000 </r>
       <r>    3.3296    1.0000 </r>
       <r>    3.3296    1.0000 </r>
       <r>    3.7181    1.0000 </r>
       <r>    4.4591    1.0000 </r>
       <r>    4.4591    1.0000 </r>
       <r>    4.4591    1.0000 </r>
       <r>    4.4591    1.0000 </r>
       <r>    4.5574    1.0000 </r>
       <r>    4.5574    1.0000 </r>
       <r>    6.3851    0.0000 </r>
       <r>    7.3868    0.0000 </r>
       <r>    7.6373    0.0000 </r>
       <r>    8.1323    0.0000 </r>
       <r>    8.1323    0.0000 </r>
       <r>    8.1323    0.0000 </r>
       <r>    8.1323    0.0000 </r>
       <r>    8.4178    0.0000 </r>
       <r>    8.4178    0.0000 </r>
       <r>    8.4178    0.0000 </r>
       <r>    8.4178    0.0000 </r>
       <r>    9.8043    0.0000 </r>
       <r>    9.8047    0.0000 </r>
       <r>    9.8055    0.0000 </r>
       <r>    9.8206    0.0000 </r>
       <r>    9.9373    0.0000 </r>
      </set>
      <set comment="kpoint 11">
       <r>   -5.3970    1.0000 </r>
       <r>   -4.7249    1.0000 </r>
       <r>   -4.6886    1.0000 </r>
       <r>   -4.0827    1.0000 </r>
       <r>   -4.0827    1.0000 </r>
       <r>   -3.5354    1.0000 </r>
       <r>   -2.4504    1.0000 </r>
       <r>   -2.4504    1.0000 </r>
       <r>   -1.3889    1.0000 </r>
       <r>   -1.3889    1.0000 </r>
       <r>   -0.5528    1.0000 </r>
       <r>    0.0830    1.0000 </r>
       <r>    0.0830    1.0000 </r>
       <r>    0.8887    1.0000 </r>
       <r>    1.3310    1.0000 </r>
       <r>    1.6322    1.0000 </r>
       <r>    1.6322    1.0000 </r>
       <r>    1.7029    1.0000 </r>
       <r>    2.2112    1.0000 </r>
       <r>    2.2112    1.0000 </r>
       <r>    2.4217    1.0000 </r>
       <r>    2.4217    1.0000 </r>
       <r>    2.6281    1.0000 </r>
       <r>    2.8268    1.0000 </r>
       <r>    3.3849    1.0000 </r>
       <r>    3.6115    1.0000 </r>
       <r>    4.0328    1.0000 </r>
       <r>    4.0939    1.0000 </r>
       <r>    4.0939    1.0000 </r>
       <r>    4.2060    1.0000 </r>
       <r>    4.2221    1.0000 </r>
       <r>    4.8298    1.0000 </r>
       <r>    6.8820    0.0000 </r>
       <r>    7.4049    0.0000 </r>
       <r>    7.6891    0.0000 </r>
       <r>    8.4313    0.0000 </r>
       <r>    8.4743    0.0000 </r>
       <r>    8.6647    0.0000 </r>
       <r>    8.6647    0.0000 </r>
       <r>    8.6944    0.0000 </r>
       <r>    8.6944    0.0000 </r>
       <r>    9.2904    0.0000 </r>
       <r>    9.2904    0.0000 </r>
       <r>    9.5697    0.0000 </r>
       <r>    9.7104    0.0000 </r>
       <r>    9.8617    0.0000 </r>
       <r>    9.9549    0.0000 </r>
       <r>    9.9549    0.0000 </r>
      </set>
      <set comment="kpoint 12">
       <r>   -5.2584    1.0000 </r>
       <r>   -4.9078    1.0000 </r>
       <r>   -4.9078    1.0000 </r>
       <r>   -3.9151    1.0000 </r>
       <r>   -3.9151    1.0000 </r>
       <r>   -2.9346    1.0000 </r>
       <r>   -2.9241    1.0000 </r>
       <r>   -2.9241    1.0000 </r>
       <r>   -1.0910    1.0000 </r>
       <r>   -1.0910    1.0000 </r>
       <r>   -1.0145    1.0000 </r>
       <r>    0.1141    1.0000 </r>
       <r>    0.1141    1.0000 </r>
       <r>    1.2995    1.0000 </r>
       <r>    1.3127    1.0000 </r>
       <r>    1.3127    1.0000 </r>
       <r>    1.7110    1.0000 </r>
       <r>    1.7110    1.0000 </r>
       <r>    2.0343    1.0000 </r>
       <r>    2.1534    1.0000 </r>
       <r>    2.1534    1.0000 </r>
       <r>    2.9709    1.0000 </r>
       <r>    2.9709    1.0000 </r>
       <r>    3.3182    1.0000 </r>
       <r>    3.4439    1.0000 </r>
       <r>    3.4439    1.0000 </r>
       <r>    3.6386    1.0000 </r>
       <r>    3.7480    1.0000 </r>
       <r>    3.7480    1.0000 </r>
       <r>    4.0038    1.0000 </r>
       <r>    4.0038    1.0000 </r>
       <r>    5.1964    1.0000 </r>
       <r>    7.2238    0.0000 </r>
       <r>    7.6425    0.0000 </r>
       <r>    7.6425    0.0000 </r>
       <r>    8.5356    0.0000 </r>
       <r>    8.5356    0.0000 </r>
       <r>    8.7426    0.0000 </r>
       <r>    9.0217    0.0000 </r>
       <r>    9.0217    0.0000 </r>
       <r>    9.2458    0.0000 </r>
       <r>    9.2458    0.0000 </r>
       <r>    9.2710    0.0000 </r>
       <r>    9.3721    0.0000 </r>
       <r>    9.3721    0.0000 </r>
       <r>    9.5381    0.0000 </r>
       <r>    9.7485    0.0000 </r>
       <r>    9.7494    0.0000 </r>
      </set>
      <set comment="kpoint 13">
       <r>   -5.1260    1.0000 </r>
       <r>   -5.1260    1.0000 </r>
       <r>   -4.1607    1.0000 </r>
       <r>   -4.1607    1.0000 </r>
       <r>   -4.1607    1.0000 </r>
       <r>   -4.1607    1.0000 </r>
       <r>   -1.8902    1.0000 </r>
       <r>   -1.8902    1.0000 </r>
       <r>   -1.8902    1.0000 </r>
       <r>   -1.8902    1.0000 </r>
       <r>    0.2736    1.0000 </r>
       <r>    0.2736    1.0000 </r>
       <r>    0.2736    1.0000 </r>
       <r>    0.2736    1.0000 </r>
       <r>    1.8652    1.0000 </r>
       <r>    1.8652    1.0000 </r>
       <r>    1.8652    1.0000 </r>
       <r>    1.8652    1.0000 </r>
       <r>    1.9668    1.0000 </r>
       <r>    1.9668    1.0000 </r>
       <r>    1.9668    1.0000 </r>
       <r>    1.9668    1.0000 </r>
       <r>    2.2415    1.0000 </r>
       <r>    2.2415    1.0000 </r>
       <r>    3.8583    1.0000 </r>
       <r>    3.8583    1.0000 </r>
       <r>    3.8583    1.0000 </r>
       <r>    3.8583    1.0000 </r>
       <r>    4.4278    1.0000 </r>
       <r>    4.4278    1.0000 </r>
       <r>    4.4278    1.0000 </r>
       <r>    4.4278    1.0000 </r>
       <r>    6.7979    0.0000 </r>
       <r>    6.7979    0.0000 </r>
       <r>    8.1251    0.0000 </r>
       <r>    8.1251    0.0000 </r>
       <r>    8.1251    0.0000 </r>
       <r>    8.1251    0.0000 </r>
       <r>    8.7867    0.0000 </r>
       <r>    8.7867    0.0000 </r>
       <r>    9.9341    0.0000 </r>
       <r>    9.9341    0.0000 </r>
       <r>    9.9341    0.0000 </r>
       <r>    9.9341    0.0000 </r>
       <r>   10.5015    0.0000 </r>
       <r>   10.5084    0.0000 </r>
       <r>   10.5694    0.0000 </r>
       <r>   10.6890    0.0000 </r>
      </set>
      <set comment="kpoint 14">
       <r>   -5.6074    1.0000 </r>
       <r>   -4.5929    1.0000 </r>
       <r>   -4.5929    1.0000 </r>
       <r>   -4.2033    1.0000 </r>
       <r>   -3.4884    1.0000 </r>
       <r>   -3.4884    1.0000 </r>
       <r>   -2.9769    1.0000 </r>
       <r>   -2.4026    1.0000 </r>
       <r>   -1.4972    1.0000 </r>
       <r>   -0.8814    1.0000 </r>
       <r>   -0.8006    1.0000 </r>
       <r>   -0.8006    1.0000 </r>
       <r>    0.4733    1.0000 </r>
       <r>    0.4733    1.0000 </r>
       <r>    0.5734    1.0000 </r>
       <r>    1.4633    1.0000 </r>
       <r>    1.9533    1.0000 </r>
       <r>    2.1396    1.0000 </r>
       <r>    2.1396    1.0000 </r>
       <r>    2.5781    1.0000 </r>
       <r>    2.8957    1.0000 </r>
       <r>    2.9645    1.0000 </r>
       <r>    3.0252    1.0000 </r>
       <r>    3.3021    1.0000 </r>
       <r>    3.3021    1.0000 </r>
       <r>    3.3308    1.0000 </r>
       <r>    3.7738    1.0000 </r>
       <r>    3.7738    1.0000 </r>
       <r>    4.1063    1.0000 </r>
       <r>    4.4443    1.0000 </r>
       <r>    4.4443    1.0000 </r>
       <r>    5.0509    1.0000 </r>
       <r>    7.0628    0.0000 </r>
       <r>    7.4124    0.0000 </r>
       <r>    8.0308    0.0000 </r>
       <r>    8.1308    0.0000 </r>
       <r>    8.2973    0.0000 </r>
       <r>    8.2973    0.0000 </r>
       <r>    8.3478    0.0000 </r>
       <r>    8.3478    0.0000 </r>
       <r>    8.3575    0.0000 </r>
       <r>    8.7491    0.0000 </r>
       <r>    9.0836    0.0000 </r>
       <r>    9.0836    0.0000 </r>
       <r>    9.2590    0.0000 </r>
       <r>    9.4299    0.0000 </r>
       <r>    9.4299    0.0000 </r>
       <r>    9.8429    0.0000 </r>
      </set>
      <set comment="kpoint 15">
       <r>   -5.1701    1.0000 </r>
       <r>   -5.1701    1.0000 </r>
       <r>   -4.4811    1.0000 </r>
       <r>   -4.4811    1.0000 </r>
       <r>   -3.2878    1.0000 </r>
       <r>   -3.2878    1.0000 </r>
       <r>   -2.9294    1.0000 </r>
       <r>   -2.9294    1.0000 </r>
       <r>   -1.0538    1.0000 </r>
       <r>   -1.0538    1.0000 </r>
       <r>   -0.6581    1.0000 </r>
       <r>   -0.6581    1.0000 </r>
       <r>    0.7831    1.0000 </r>
       <r>    0.7831    1.0000 </r>
       <r>    1.4784    1.0000 </r>
       <r>    1.4784    1.0000 </r>
       <r>    1.7802    1.0000 </r>
       <r>    1.7802    1.0000 </r>
       <r>    1.8038    1.0000 </r>
       <r>    1.8038    1.0000 </r>
       <r>    2.8649    1.0000 </r>
       <r>    2.8649    1.0000 </r>
       <r>    3.1020    1.0000 </r>
       <r>    3.1020    1.0000 </r>
       <r>    3.3187    1.0000 </r>
       <r>    3.3187    1.0000 </r>
       <r>    3.5709    1.0000 </r>
       <r>    3.5709    1.0000 </r>
       <r>    3.8304    1.0000 </r>
       <r>    3.8304    1.0000 </r>
       <r>    4.7740    1.0000 </r>
       <r>    4.7740    1.0000 </r>
       <r>    7.8000    0.0000 </r>
       <r>    7.8000    0.0000 </r>
       <r>    7.8031    0.0000 </r>
       <r>    7.8031    0.0000 </r>
       <r>    8.3094    0.0000 </r>
       <r>    8.3094    0.0000 </r>
       <r>    8.9017    0.0000 </r>
       <r>    8.9017    0.0000 </r>
       <r>    9.2227    0.0000 </r>
       <r>    9.2227    0.0000 </r>
       <r>    9.4110    0.0000 </r>
       <r>    9.4110    0.0000 </r>
       <r>    9.4466    0.0000 </r>
       <r>    9.4466    0.0000 </r>
       <r>   10.2634    0.0000 </r>
       <r>   10.2689    0.0000 </r>
      </set>
      <set comment="kpoint 16">
       <r>   -5.0152    1.0000 </r>
       <r>   -5.0152    1.0000 </r>
       <r>   -4.6877    1.0000 </r>
       <r>   -4.6877    1.0000 </r>
       <r>   -3.4704    1.0000 </r>
       <r>   -3.4704    1.0000 </r>
       <r>   -2.6822    1.0000 </r>
       <r>   -2.6822    1.0000 </r>
       <r>   -1.1595    1.0000 </r>
       <r>   -1.1595    1.0000 </r>
       <r>   -0.4611    1.0000 </r>
       <r>   -0.4611    1.0000 </r>
       <r>    1.0658    1.0000 </r>
       <r>    1.0658    1.0000 </r>
       <r>    1.5057    1.0000 </r>
       <r>    1.5057    1.0000 </r>
       <r>    1.5651    1.0000 </r>
       <r>    1.5651    1.0000 </r>
       <r>    1.8360    1.0000 </r>
       <r>    1.8360    1.0000 </r>
       <r>    2.6270    1.0000 </r>
       <r>    2.6270    1.0000 </r>
       <r>    2.6493    1.0000 </r>
       <r>    2.6493    1.0000 </r>
       <r>    3.4071    1.0000 </r>
       <r>    3.4071    1.0000 </r>
       <r>    3.6671    1.0000 </r>
       <r>    3.6671    1.0000 </r>
       <r>    4.1226    1.0000 </r>
       <r>    4.1226    1.0000 </r>
       <r>    4.4799    1.0000 </r>
       <r>    4.4799    1.0000 </r>
       <r>    7.4698    0.0000 </r>
       <r>    7.4698    0.0000 </r>
       <r>    8.2009    0.0000 </r>
       <r>    8.2009    0.0000 </r>
       <r>    8.9046    0.0000 </r>
       <r>    8.9046    0.0000 </r>
       <r>    8.9969    0.0000 </r>
       <r>    8.9969    0.0000 </r>
       <r>    9.0564    0.0000 </r>
       <r>    9.0564    0.0000 </r>
       <r>    9.1885    0.0000 </r>
       <r>    9.1885    0.0000 </r>
       <r>   10.1543    0.0000 </r>
       <r>   10.1564    0.0000 </r>
       <r>   10.3358    0.0000 </r>
       <r>   10.3684    0.0000 </r>
      </set>
     </set>
    </set>
   </array>
  </eigenvalues>
  <separator name="orbital magnetization" >
   <v name="MAGDIPOLOUT">      0.00000000      0.00000000      0.00000000</v>
  </separator>
  <dos>
   <i name="efermi">      5.80415646 </i>
   <total>
    <array>
     <dimension dim="1">gridpoints</dimension>
     <dimension dim="2">spin</dimension>
     <field>energy</field>
     <field>total</field>
     <field>integrated</field>
     <set>
      <set comment="spin 1">
       <r>    -7.0544     0.0000     0.0000 </r>
       <r>    -7.0358     0.0000     0.0000 </r>
       <r>    -7.0172     0.0000     0.0000 </r>
       <r>    -6.9986     0.0000     0.0000 </r>
       <r>    -6.9800     0.0000     0.0000 </r>
       <r>    -6.9614     0.0000     0.0000 </r>
       <r>    -6.9428     0.0000     0.0000 </r>
       <r>    -6.9242     0.0000     0.0000 </r>
       <r>    -6.9056     0.0000     0.0000 </r>
       <r>    -6.8870     0.0000     0.0000 </r>
       <r>    -6.8684     0.0000     0.0000 </r>
       <r>    -6.8498     0.0000     0.0000 </r>
       <r>    -6.8312     0.0000     0.0000 </r>
       <r>    -6.8126     0.0000     0.0000 </r>
       <r>    -6.7939     0.0000     0.0000 </r>
       <r>    -6.7753     0.0000     0.0000 </r>
       <r>    -6.7567     0.0000     0.0000 </r>
       <r>    -6.7381     0.0000     0.0000 </r>
       <r>    -6.7195     0.0000     0.0000 </r>
       <r>    -6.7009     0.0000     0.0000 </r>
       <r>    -6.6823     0.0000     0.0000 </r>
       <r>    -6.6637     0.0000     0.0000 </r>
       <r>    -6.6451     0.0000     0.0000 </r>
       <r>    -6.6265     0.0000     0.0000 </r>
       <r>    -6.6079     0.0000     0.0000 </r>
       <r>    -6.5893     0.0000     0.0000 </r>
       <r>    -6.5707     0.0000     0.0000 </r>
       <r>    -6.5521     0.0000     0.0000 </r>
       <r>    -6.5335     0.0000     0.0000 </r>
       <r>    -6.5148     0.0000     0.0000 </r>
       <r>    -6.4962     0.0000     0.0000 </r>
       <r>    -6.4776     0.0000     0.0000 </r>
       <r>    -6.4590     0.0000     0.0000 </r>
       <r>    -6.4404     0.0000     0.0000 </r>
       <r>    -6.4218     0.0000     0.0000 </r>
       <r>    -6.4032     0.0000     0.0000 </r>
       <r>    -6.3846     0.0000     0.0000 </r>
       <r>    -6.3660     0.0000     0.0000 </r>
       <r>    -6.3474     0.0000     0.0000 </r>
       <r>    -6.3288     0.0000     0.0000 </r>
       <r>    -6.3102     0.0000     0.0000 </r>
       <r>    -6.2916     0.0000     0.0000 </r>
       <r>    -6.2730     0.0000     0.0000 </r>
       <r>    -6.2543     0.0000     0.0000 </r>
       <r>    -6.2357     0.0001     0.0000 </r>
       <r>    -6.2171     0.0700     0.0013 </r>
       <r>    -6.1985     0.3977     0.0087 </r>
       <r>    -6.1799     0.0298     0.0093 </r>
       <r>    -6.1613     0.0000     0.0093 </r>
       <r>    -6.1427     0.0012     0.0093 </r>
       <r>    -6.1241     0.8333     0.0248 </r>
       <r>    -6.1055     3.0296     0.0812 </r>
       <r>    -6.0869     1.7742     0.1142 </r>
       <r>    -6.0683     1.3200     0.1387 </r>
       <r>    -6.0497     0.0084     0.1389 </r>
       <r>    -6.0311     0.0000     0.1389 </r>
       <r>    -6.0125     0.0000     0.1389 </r>
       <r>    -5.9938     0.0005     0.1389 </r>
       <r>    -5.9752     0.7670     0.1532 </r>
       <r>    -5.9566     4.8035     0.2425 </r>
       <r>    -5.9380     0.4003     0.2500 </r>
       <r>    -5.9194     0.0001     0.2500 </r>
       <r>    -5.9008     0.0036     0.2501 </r>
       <r>    -5.8822     2.5426     0.2974 </r>
       <r>    -5.8636     9.0507     0.4658 </r>
       <r>    -5.8450     2.9457     0.5206 </r>
       <r>    -5.8264     1.3763     0.5462 </r>
       <r>    -5.8078     0.0049     0.5463 </r>
       <r>    -5.7892     0.0000     0.5463 </r>
       <r>    -5.7706     0.0000     0.5463 </r>
       <r>    -5.7520     0.0002     0.5463 </r>
       <r>    -5.7333     0.3332     0.5525 </r>
       <r>    -5.7147     2.4173     0.5975 </r>
       <r>    -5.6961     0.2350     0.6019 </r>
       <r>    -5.6775     0.0001     0.6019 </r>
       <r>    -5.6589     0.0327     0.6025 </r>
       <r>    -5.6403     5.2431     0.7000 </r>
       <r>    -5.6217     6.8466     0.8274 </r>
       <r>    -5.6031     8.5192     0.9859 </r>
       <r>    -5.5845     3.2372     1.0462 </r>
       <r>    -5.5659     0.0072     1.0463 </r>
       <r>    -5.5473     0.0000     1.0463 </r>
       <r>    -5.5287     0.0000     1.0463 </r>
       <r>    -5.5101     0.0612     1.0474 </r>
       <r>    -5.4915     6.2150     1.1631 </r>
       <r>    -5.4729     5.6248     1.2677 </r>
       <r>    -5.4542     0.0420     1.2685 </r>
       <r>    -5.4356     0.0002     1.2685 </r>
       <r>    -5.4170     0.4628     1.2771 </r>
       <r>    -5.3984     8.2380     1.4304 </r>
       <r>    -5.3798     7.1337     1.5632 </r>
       <r>    -5.3612     0.0891     1.5648 </r>
       <r>    -5.3426     0.0000     1.5648 </r>
       <r>    -5.3240     0.0000     1.5648 </r>
       <r>    -5.3054     0.0000     1.5648 </r>
       <r>    -5.2868     0.0002     1.5648 </r>
       <r>    -5.2682     0.4963     1.5741 </r>
       <r>    -5.2496     4.8410     1.6641 </r>
       <r>    -5.2310     0.6336     1.6759 </r>
       <r>    -5.2124     0.0003     1.6759 </r>
       <r>    -5.1937     0.0097     1.6761 </r>
       <r>    -5.1751     5.6389     1.7810 </r>
       <r>    -5.1565    19.3997     2.1420 </r>
       <r>    -5.1379    10.2742     2.3332 </r>
       <r>    -5.1193     2.9800     2.3886 </r>
       <r>    -5.1007     0.5115     2.3981 </r>
       <r>    -5.0821     0.0005     2.3981 </r>
       <r>    -5.0635     0.0000     2.3981 </r>
       <r>    -5.0449     0.0002     2.3982 </r>
       <r>    -5.0263     0.6904     2.4110 </r>
       <r>    -5.0077     9.5206     2.5881 </r>
       <r>    -4.9891     1.7305     2.6203 </r>
       <r>    -4.9705     0.1402     2.6230 </r>
       <r>    -4.9519     7.5208     2.7629 </r>
       <r>    -4.9332     4.2687     2.8423 </r>
       <r>    -4.9146     1.9899     2.8793 </r>
       <r>    -4.8960     9.3876     3.0540 </r>
       <r>    -4.8774     0.5799     3.0648 </r>
       <r>    -4.8588     0.0002     3.0648 </r>
       <r>    -4.8402     0.2458     3.0694 </r>
       <r>    -4.8216     3.1874     3.1287 </r>
       <r>    -4.8030     0.5472     3.1389 </r>
       <r>    -4.7844     0.0004     3.1389 </r>
       <r>    -4.7658     0.0000     3.1389 </r>
       <r>    -4.7472     0.0098     3.1391 </r>
       <r>    -4.7286     3.5985     3.2060 </r>
       <r>    -4.7100     8.1528     3.3577 </r>
       <r>    -4.6914     7.9333     3.5053 </r>
       <r>    -4.6728    15.7764     3.7989 </r>
       <r>    -4.6541     0.3580     3.8056 </r>
       <r>    -4.6355     0.0000     3.8056 </r>
       <r>    -4.6169     0.0082     3.8057 </r>
       <r>    -4.5983     5.3109     3.9045 </r>
       <r>    -4.5797    17.8296     4.2363 </r>
       <r>    -4.5611     0.7472     4.2502 </r>
       <r>    -4.5425     3.6424     4.3180 </r>
       <r>    -4.5239     8.0893     4.4685 </r>
       <r>    -4.5053     0.2088     4.4724 </r>
       <r>    -4.4867     5.1617     4.5684 </r>
       <r>    -4.4681    17.9434     4.9023 </r>
       <r>    -4.4495     0.7730     4.9167 </r>
       <r>    -4.4309     0.0001     4.9167 </r>
       <r>    -4.4123     0.0000     4.9167 </r>
       <r>    -4.3936     0.0000     4.9167 </r>
       <r>    -4.3750     0.0000     4.9167 </r>
       <r>    -4.3564     0.0001     4.9167 </r>
       <r>    -4.3378     0.5164     4.9263 </r>
       <r>    -4.3192     9.3225     5.0997 </r>
       <r>    -4.3006     7.8949     5.2466 </r>
       <r>    -4.2820     8.9670     5.4135 </r>
       <r>    -4.2634     0.1706     5.4167 </r>
       <r>    -4.2448     0.0000     5.4167 </r>
       <r>    -4.2262     0.0123     5.4169 </r>
       <r>    -4.2076     4.6286     5.5030 </r>
       <r>    -4.1890    10.9767     5.7073 </r>
       <r>    -4.1704     0.8202     5.7225 </r>
       <r>    -4.1518     4.8440     5.8127 </r>
       <r>    -4.1331     0.6269     5.8243 </r>
       <r>    -4.1145     4.1170     5.9009 </r>
       <r>    -4.0959    15.4394     6.1882 </r>
       <r>    -4.0773    22.8586     6.6135 </r>
       <r>    -4.0587     5.3351     6.7128 </r>
       <r>    -4.0401     0.0082     6.7130 </r>
       <r>    -4.0215     0.0000     6.7130 </r>
       <r>    -4.0029     0.0000     6.7130 </r>
       <r>    -3.9843     0.2033     6.7167 </r>
       <r>    -3.9657    14.4228     6.9851 </r>
       <r>    -3.9471    18.5026     7.3294 </r>
       <r>    -3.9285     3.0451     7.3860 </r>
       <r>    -3.9099     8.8522     7.5508 </r>
       <r>    -3.8913     2.7419     7.6018 </r>
       <r>    -3.8726     0.4794     7.6107 </r>
       <r>    -3.8540    11.7024     7.8284 </r>
       <r>    -3.8354    16.2422     8.1307 </r>
       <r>    -3.8168     9.0429     8.2989 </r>
       <r>    -3.7982     0.3564     8.3056 </r>
       <r>    -3.7796     0.3951     8.3129 </r>
       <r>    -3.7610     8.9974     8.4803 </r>
       <r>    -3.7424     2.5468     8.5277 </r>
       <r>    -3.7238     0.2763     8.5329 </r>
       <r>    -3.7052     8.5244     8.6915 </r>
       <r>    -3.6866     3.1394     8.7499 </r>
       <r>    -3.6680     0.0066     8.7500 </r>
       <r>    -3.6494     0.0039     8.7501 </r>
       <r>    -3.6308     2.5942     8.7983 </r>
       <r>    -3.6122     9.2390     8.9703 </r>
       <r>    -3.5935    20.7519     9.3564 </r>
       <r>    -3.5749    15.0919     9.6372 </r>
       <r>    -3.5563     0.1090     9.6392 </r>
       <r>    -3.5377     4.4030     9.7212 </r>
       <r>    -3.5191     7.3938     9.8587 </r>
       <r>    -3.5005     1.2719     9.8824 </r>
       <r>    -3.4819    26.4323    10.3742 </r>
       <r>    -3.4633    18.2739    10.7142 </r>
       <r>    -3.4447     1.9199    10.7500 </r>
       <r>    -3.4261     0.0017    10.7500 </r>
       <r>    -3.4075     0.0000    10.7500 </r>
       <r>    -3.3889     0.0000    10.7500 </r>
       <r>    -3.3703     0.0901    10.7517 </r>
       <r>    -3.3517    11.4667    10.9650 </r>
       <r>    -3.3330    12.2148    11.1923 </r>
       <r>    -3.3144     0.1163    11.1945 </r>
       <r>    -3.2958     3.0381    11.2510 </r>
       <r>    -3.2772    19.8368    11.6201 </r>
       <r>    -3.2586     3.8888    11.6925 </r>
       <r>    -3.2400     0.1060    11.6944 </r>
       <r>    -3.2214     0.0004    11.6945 </r>
       <r>    -3.2028     1.0352    11.7137 </r>
       <r>    -3.1842     9.6895    11.8940 </r>
       <r>    -3.1656     2.3721    11.9381 </r>
       <r>    -3.1470    10.2512    12.1289 </r>
       <r>    -3.1284    10.4461    12.3233 </r>
       <r>    -3.1098     2.0323    12.3611 </r>
       <r>    -3.0912     0.0020    12.3611 </r>
       <r>    -3.0725     0.0000    12.3611 </r>
       <r>    -3.0539     0.0000    12.3611 </r>
       <r>    -3.0353     0.0000    12.3611 </r>
       <r>    -3.0167     0.4793    12.3700 </r>
       <r>    -2.9981    16.7042    12.6808 </r>
       <r>    -2.9795    10.9551    12.8847 </r>
       <r>    -2.9609     7.5509    13.0252 </r>
       <r>    -2.9423     1.8216    13.0591 </r>
       <r>    -2.9237    28.9895    13.5985 </r>
       <r>    -2.9051    11.0782    13.8046 </r>
       <r>    -2.8865     0.0503    13.8056 </r>
       <r>    -2.8679     0.0000    13.8056 </r>
       <r>    -2.8493     0.0000    13.8056 </r>
       <r>    -2.8307     0.0000    13.8056 </r>
       <r>    -2.8120     0.0000    13.8056 </r>
       <r>    -2.7934     0.0000    13.8056 </r>
       <r>    -2.7748     0.0000    13.8056 </r>
       <r>    -2.7562     0.0000    13.8056 </r>
       <r>    -2.7376     0.0000    13.8056 </r>
       <r>    -2.7190     0.0000    13.8056 </r>
       <r>    -2.7004     0.0609    13.8067 </r>
       <r>    -2.6818     6.2338    13.9227 </r>
       <r>    -2.6632    12.4662    14.1546 </r>
       <r>    -2.6446    16.3960    14.4597 </r>
       <r>    -2.6260     0.6718    14.4722 </r>
       <r>    -2.6074     0.0001    14.4722 </r>
       <r>    -2.5888     0.0013    14.4722 </r>
       <r>    -2.5702     2.5570    14.5198 </r>
       <r>    -2.5516    19.3603    14.8801 </r>
       <r>    -2.5329     1.9666    14.9167 </r>
       <r>    -2.5143     0.0007    14.9167 </r>
       <r>    -2.4957     0.0000    14.9167 </r>
       <r>    -2.4771     0.0018    14.9167 </r>
       <r>    -2.4585     2.9626    14.9718 </r>
       <r>    -2.4399    19.2524    15.3301 </r>
       <r>    -2.4213     1.7169    15.3620 </r>
       <r>    -2.4027     5.8463    15.4708 </r>
       <r>    -2.3841     5.9955    15.5823 </r>
       <r>    -2.3655     0.0532    15.5833 </r>
       <r>    -2.3469     0.0000    15.5833 </r>
       <r>    -2.3283     0.0000    15.5833 </r>
       <r>    -2.3097     0.0000    15.5833 </r>
       <r>    -2.2911     0.0000    15.5833 </r>
       <r>    -2.2724     0.0000    15.5833 </r>
       <r>    -2.2538     0.0000    15.5833 </r>
       <r>    -2.2352     0.0000    15.5833 </r>
       <r>    -2.2166     0.0112    15.5835 </r>
       <r>    -2.1980     2.3436    15.6271 </r>
       <r>    -2.1794     3.5626    15.6934 </r>
       <r>    -2.1608     0.0541    15.6944 </r>
       <r>    -2.1422     0.0000    15.6944 </r>
       <r>    -2.1236     0.0000    15.6944 </r>
       <r>    -2.1050     0.0000    15.6944 </r>
       <r>    -2.0864     0.0002    15.6944 </r>
       <r>    -2.0678     0.3169    15.7003 </r>
       <r>    -2.0492     2.4207    15.7454 </r>
       <r>    -2.0306     1.0138    15.7642 </r>
       <r>    -2.0119     9.5838    15.9426 </r>
       <r>    -1.9933     1.5922    15.9722 </r>
       <r>    -1.9747     0.0011    15.9722 </r>
       <r>    -1.9561     0.0228    15.9726 </r>
       <r>    -1.9375     4.7143    16.0604 </r>
       <r>    -1.9189     7.0997    16.1925 </r>
       <r>    -1.9003     0.5622    16.2029 </r>
       <r>    -1.8817     4.8300    16.2928 </r>
       <r>    -1.8631     0.6852    16.3055 </r>
       <r>    -1.8445     0.0004    16.3056 </r>
       <r>    -1.8259     0.0001    16.3056 </r>
       <r>    -1.8073     0.4096    16.3132 </r>
       <r>    -1.7887     4.8090    16.4027 </r>
       <r>    -1.7701     0.7523    16.4167 </r>
       <r>    -1.7515     0.0005    16.4167 </r>
       <r>    -1.7328     0.0000    16.4167 </r>
       <r>    -1.7142     0.0000    16.4167 </r>
       <r>    -1.6956     0.0000    16.4167 </r>
       <r>    -1.6770     0.0000    16.4167 </r>
       <r>    -1.6584     0.0000    16.4167 </r>
       <r>    -1.6398     0.0000    16.4167 </r>
       <r>    -1.6212     0.0000    16.4167 </r>
       <r>    -1.6026     0.0000    16.4167 </r>
       <r>    -1.5840     0.0000    16.4167 </r>
       <r>    -1.5654     0.0000    16.4167 </r>
       <r>    -1.5468     0.0000    16.4167 </r>
       <r>    -1.5282     0.0001    16.4167 </r>
       <r>    -1.5096     0.4750    16.4255 </r>
       <r>    -1.4910     9.1996    16.5967 </r>
       <r>    -1.4723     2.2656    16.6388 </r>
       <r>    -1.4537     0.0027    16.6389 </r>
       <r>    -1.4351     0.0000    16.6389 </r>
       <r>    -1.4165     0.0028    16.6389 </r>
       <r>    -1.3979     4.5563    16.7237 </r>
       <r>    -1.3793    43.2699    17.5288 </r>
       <r>    -1.3607    11.8434    17.7492 </r>
       <r>    -1.3421     0.0423    17.7500 </r>
       <r>    -1.3235     0.0060    17.7501 </r>
       <r>    -1.3049     3.0473    17.8068 </r>
       <r>    -1.2863     8.6011    17.9669 </r>
       <r>    -1.2677     0.2886    17.9722 </r>
       <r>    -1.2491     0.2159    17.9762 </r>
       <r>    -1.2305     1.6128    18.0063 </r>
       <r>    -1.2118     0.1616    18.0093 </r>
       <r>    -1.1932     0.0001    18.0093 </r>
       <r>    -1.1746     0.1928    18.0128 </r>
       <r>    -1.1560     8.0427    18.1625 </r>
       <r>    -1.1374     8.4517    18.3198 </r>
       <r>    -1.1188    16.5955    18.6286 </r>
       <r>    -1.1002     3.7090    18.6976 </r>
       <r>    -1.0816     9.6976    18.8780 </r>
       <r>    -1.0630     3.9193    18.9509 </r>
       <r>    -1.0444    28.8725    19.4882 </r>
       <r>    -1.0258    12.3355    19.7177 </r>
       <r>    -1.0072     8.9393    19.8840 </r>
       <r>    -0.9886    17.5992    20.2115 </r>
       <r>    -0.9700    29.8288    20.7665 </r>
       <r>    -0.9513     9.7737    20.9484 </r>
       <r>    -0.9327     3.2646    21.0091 </r>
       <r>    -0.9141     0.0074    21.0093 </r>
       <r>    -0.8955     0.2731    21.0143 </r>
       <r>    -0.8769     9.5173    21.1914 </r>
       <r>    -0.8583    12.8202    21.4300 </r>
       <r>    -0.8397     1.2746    21.4537 </r>
       <r>    -0.8211     0.2407    21.4582 </r>
       <r>    -0.8025    17.4106    21.7821 </r>
       <r>    -0.7839    17.9507    22.1161 </r>
       <r>    -0.7653     0.2282    22.1204 </r>
       <r>    -0.7467     1.4229    22.1469 </r>
       <r>    -0.7281    12.1863    22.3736 </r>
       <r>    -0.7095     2.8049    22.4258 </r>
       <r>    -0.6909     2.3509    22.4695 </r>
       <r>    -0.6722     0.6832    22.4823 </r>
       <r>    -0.6536    17.0326    22.7992 </r>
       <r>    -0.6350    11.1359    23.0064 </r>
       <r>    -0.6164    25.7963    23.4864 </r>
       <r>    -0.5978     5.2035    23.5832 </r>
       <r>    -0.5792     0.0083    23.5834 </r>
       <r>    -0.5606     1.6062    23.6132 </r>
       <r>    -0.5420     9.5778    23.7915 </r>
       <r>    -0.5234     0.7576    23.8056 </r>
       <r>    -0.5048     0.0002    23.8056 </r>
       <r>    -0.4862     0.0023    23.8056 </r>
       <r>    -0.4676     2.1416    23.8454 </r>
       <r>    -0.4490     9.2826    24.0182 </r>
       <r>    -0.4304     0.5164    24.0278 </r>
       <r>    -0.4117     0.0001    24.0278 </r>
       <r>    -0.3931     0.0000    24.0278 </r>
       <r>    -0.3745     0.2161    24.0318 </r>
       <r>    -0.3559     8.1945    24.1843 </r>
       <r>    -0.3373     3.5232    24.2498 </r>
       <r>    -0.3187     0.0092    24.2500 </r>
       <r>    -0.3001     0.0129    24.2502 </r>
       <r>    -0.2815     6.4287    24.3699 </r>
       <r>    -0.2629    35.4390    25.0293 </r>
       <r>    -0.2443    17.6965    25.3586 </r>
       <r>    -0.2257     0.1375    25.3611 </r>
       <r>    -0.2071     0.0000    25.3611 </r>
       <r>    -0.1885     0.0000    25.3611 </r>
       <r>    -0.1699     0.0000    25.3611 </r>
       <r>    -0.1512     0.0000    25.3611 </r>
       <r>    -0.1326     0.0000    25.3611 </r>
[...]
        <r>  0.0065  0.0005  0.0045  0.0029  0.0000  0.0000  0.0000  0.0000  0.0000 </r>
        <r>  0.0055  0.0004  0.0054  0.0034  0.0000  0.0000  0.0000  0.0000  0.0000 </r>
        <r>  0.0055  0.0004  0.0054  0.0034  0.0000  0.0000  0.0000  0.0000  0.0000 </r>
        <r>  0.0055  0.0004  0.0054  0.0034  0.0000  0.0000  0.0000  0.0000  0.0000 </r>
        <r>  0.0055  0.0004  0.0054  0.0034  0.0000  0.0000  0.0000  0.0000  0.0000 </r>
        <r>  0.0065  0.0005  0.0045  0.0029  0.0000  0.0000  0.0000  0.0000  0.0000 </r>
        <r>  0.0065  0.0005  0.0045  0.0029  0.0000  0.0000  0.0000  0.0000  0.0000 </r>
       </set>
       <set comment="band 37">
        <r>  0.0028  0.0037  0.0042  0.0068  0.0000  0.0000  0.0000  0.0000  0.0000 </r>
        <r>  0.0028  0.0037  0.0042  0.0068  0.0000  0.0000  0.0000  0.0000  0.0000 </r>
        <r>  0.0028  0.0037  0.0043  0.0069  0.0000  0.0000  0.0000  0.0000  0.0000 </r>
        <r>  0.0028  0.0037  0.0043  0.0069  0.0000  0.0000  0.0000  0.0000  0.0000 </r>
        <r>  0.0028  0.0037  0.0043  0.0069  0.0000  0.0000  0.0000  0.0000  0.0000 </r>
        <r>  0.0028  0.0037  0.0043  0.0069  0.0000  0.0000  0.0000  0.0000  0.0000 </r>
        <r>  0.0028  0.0037  0.0042  0.0068  0.0000  0.0000  0.0000  0.0000  0.0000 </r>
        <r>  0.0028  0.0037  0.0042  0.0068  0.0000  0.0000  0.0000  0.0000  0.0000 </r>
        <r>  0.0028  0.0037  0.0042  0.0068  0.0000  0.0000  0.0000  0.0000  0.0000 </r>
        <r>  0.0028  0.0037  0.0042  0.0068  0.0000  0.0000  0.0000  0.0000  0.0000 </r>
        <r>  0.0028  0.0037  0.0043  0.0069  0.0000  0.0000  0.0000  0.0000  0.0000 </r>
        <r>  0.0028  0.0037  0.0043  0.0069  0.0000  0.0000  0.0000  0.0000  0.0000 </r>
        <r>  0.0028  0.0037  0.0043  0.0069  0.0000  0.0000  0.0000  0.0000  0.0000 </r>
        <r>  0.0028  0.0037  0.0043  0.0069  0.0000  0.0000  0.0000  0.0000  0.0000 </r>
        <r>  0.0028  0.0037  0.0042  0.0068  0.0000  0.0000  0.0000  0.0000  0.0000 </r>
        <r>  0.0028  0.0037  0.0042  0.0068  0.0000  0.0000  0.0000  0.0000  0.0000 </r>
       </set>
       <set comment="band 38">
        <r>  0.0028  0.0037  0.0043  0.0069  0.0000  0.0000  0.0000  0.0000  0.0000 </r>
        <r>  0.0028  0.0037  0.0043  0.0069  0.0000  0.0000  0.0000  0.0000  0.0000 </r>
        <r>  0.0028  0.0037  0.0042  0.0068  0.0000  0.0000  0.0000  0.0000  0.0000 </r>
        <r>  0.0028  0.0037  0.0042  0.0068  0.0000  0.0000  0.0000  0.0000  0.0000 </r>
        <r>  0.0028  0.0037  0.0042  0.0068  0.0000  0.0000  0.0000  0.0000  0.0000 </r>
        <r>  0.0028  0.0037  0.0042  0.0068  0.0000  0.0000  0.0000  0.0000  0.0000 </r>
        <r>  0.0028  0.0037  0.0043  0.0069  0.0000  0.0000  0.0000  0.0000  0.0000 </r>
        <r>  0.0028  0.0037  0.0043  0.0069  0.0000  0.0000  0.0000  0.0000  0.0000 </r>
        <r>  0.0028  0.0037  0.0043  0.0069  0.0000  0.0000  0.0000  0.0000  0.0000 </r>
        <r>  0.0028  0.0037  0.0043  0.0069  0.0000  0.0000  0.0000  0.0000  0.0000 </r>
        <r>  0.0028  0.0037  0.0042  0.0068  0.0000  0.0000  0.0000  0.0000  0.0000 </r>
        <r>  0.0028  0.0037  0.0042  0.0068  0.0000  0.0000  0.0000  0.0000  0.0000 </r>
        <r>  0.0028  0.0037  0.0042  0.0068  0.0000  0.0000  0.0000  0.0000  0.0000 </r>
        <r>  0.0028  0.0037  0.0042  0.0068  0.0000  0.0000  0.0000  0.0000  0.0000 </r>
        <r>  0.0028  0.0037  0.0043  0.0069  0.0000  0.0000  0.0000  0.0000  0.0000 </r>
        <r>  0.0028  0.0037  0.0043  0.0069  0.0000  0.0000  0.0000  0.0000  0.0000 </r>
       </set>
       <set comment="band 39">
        <r>  0.0032  0.0013  0.0067  0.0026  0.0000  0.0000  0.0000  0.0000  0.0000 </r>
        <r>  0.0034  0.0014  0.0064  0.0024  0.0000  0.0000  0.0000  0.0000  0.0000 </r>
        <r>  0.0034  0.0014  0.0064  0.0024  0.0000  0.0000  0.0000  0.0000  0.0000 </r>
        <r>  0.0032  0.0013  0.0067  0.0026  0.0000  0.0000  0.0000  0.0000  0.0000 </r>
        <r>  0.0032  0.0013  0.0067  0.0026  0.0000  0.0000  0.0000  0.0000  0.0000 </r>
        <r>  0.0034  0.0014  0.0064  0.0024  0.0000  0.0000  0.0000  0.0000  0.0000 </r>
        <r>  0.0034  0.0014  0.0064  0.0024  0.0000  0.0000  0.0000  0.0000  0.0000 </r>
        <r>  0.0032  0.0013  0.0067  0.0026  0.0000  0.0000  0.0000  0.0000  0.0000 </r>
        <r>  0.0034  0.0014  0.0063  0.0024  0.0000  0.0000  0.0000  0.0000  0.0000 </r>
        <r>  0.0032  0.0013  0.0068  0.0026  0.0000  0.0000  0.0000  0.0000  0.0000 </r>
        <r>  0.0032  0.0013  0.0068  0.0026  0.0000  0.0000  0.0000  0.0000  0.0000 </r>
        <r>  0.0034  0.0014  0.0063  0.0024  0.0000  0.0000  0.0000  0.0000  0.0000 </r>
        <r>  0.0034  0.0014  0.0063  0.0024  0.0000  0.0000  0.0000  0.0000  0.0000 </r>
        <r>  0.0032  0.0013  0.0068  0.0026  0.0000  0.0000  0.0000  0.0000  0.0000 </r>
        <r>  0.0032  0.0013  0.0068  0.0026  0.0000  0.0000  0.0000  0.0000  0.0000 </r>
        <r>  0.0034  0.0014  0.0063  0.0024  0.0000  0.0000  0.0000  0.0000  0.0000 </r>
       </set>
       <set comment="band 40">
        <r>  0.0034  0.0014  0.0064  0.0024  0.0000  0.0000  0.0000  0.0000  0.0000 </r>
        <r>  0.0032  0.0013  0.0067  0.0026  0.0000  0.0000  0.0000  0.0000  0.0000 </r>
        <r>  0.0032  0.0013  0.0067  0.0026  0.0000  0.0000  0.0000  0.0000  0.0000 </r>
        <r>  0.0034  0.0014  0.0064  0.0024  0.0000  0.0000  0.0000  0.0000  0.0000 </r>
        <r>  0.0034  0.0014  0.0064  0.0024  0.0000  0.0000  0.0000  0.0000  0.0000 </r>
        <r>  0.0032  0.0013  0.0067  0.0026  0.0000  0.0000  0.0000  0.0000  0.0000 </r>
        <r>  0.0032  0.0013  0.0067  0.0026  0.0000  0.0000  0.0000  0.0000  0.0000 </r>
        <r>  0.0034  0.0014  0.0064  0.0024  0.0000  0.0000  0.0000  0.0000  0.0000 </r>
        <r>  0.0032  0.0013  0.0068  0.0026  0.0000  0.0000  0.0000  0.0000  0.0000 </r>
        <r>  0.0034  0.0014  0.0063  0.0024  0.0000  0.0000  0.0000  0.0000  0.0000 </r>
        <r>  0.0034  0.0014  0.0063  0.0024  0.0000  0.0000  0.0000  0.0000  0.0000 </r>
        <r>  0.0032  0.0013  0.0068  0.0026  0.0000  0.0000  0.0000  0.0000  0.0000 </r>
        <r>  0.0032  0.0013  0.0068  0.0026  0.0000  0.0000  0.0000  0.0000  0.0000 </r>
        <r>  0.0034  0.0014  0.0063  0.0024  0.0000  0.0000  0.0000  0.0000  0.0000 </r>
        <r>  0.0034  0.0014  0.0063  0.0024  0.0000  0.0000  0.0000  0.0000  0.0000 </r>
        <r>  0.0032  0.0013  0.0068  0.0026  0.0000  0.0000  0.0000  0.0000  0.0000 </r>
       </set>
       <set comment="band 41">
        <r>  0.0080  0.0026  0.0087  0.0008  0.0000  0.0000  0.0000  0.0000  0.0000 </r>
        <r>  0.0080  0.0026  0.0087  0.0008  0.0000  0.0000  0.0000  0.0000  0.0000 </r>
        <r>  0.0090  0.0029  0.0077  0.0007  0.0000  0.0000  0.0000  0.0000  0.0000 </r>
        <r>  0.0090  0.0029  0.0077  0.0007  0.0000  0.0000  0.0000  0.0000  0.0000 </r>
        <r>  0.0090  0.0029  0.0077  0.0007  0.0000  0.0000  0.0000  0.0000  0.0000 </r>
        <r>  0.0090  0.0029  0.0077  0.0007  0.0000  0.0000  0.0000  0.0000  0.0000 </r>
        <r>  0.0080  0.0026  0.0087  0.0008  0.0000  0.0000  0.0000  0.0000  0.0000 </r>
        <r>  0.0080  0.0026  0.0087  0.0008  0.0000  0.0000  0.0000  0.0000  0.0000 </r>
        <r>  0.0118  0.0038  0.0051  0.0005  0.0000  0.0000  0.0000  0.0000  0.0000 </r>
        <r>  0.0118  0.0038  0.0051  0.0005  0.0000  0.0000  0.0000  0.0000  0.0000 </r>
        <r>  0.0052  0.0017  0.0114  0.0010  0.0000  0.0000  0.0000  0.0000  0.0000 </r>
        <r>  0.0052  0.0017  0.0114  0.0010  0.0000  0.0000  0.0000  0.0000  0.0000 </r>
        <r>  0.0052  0.0017  0.0114  0.0010  0.0000  0.0000  0.0000  0.0000  0.0000 </r>
        <r>  0.0052  0.0017  0.0114  0.0010  0.0000  0.0000  0.0000  0.0000  0.0000 </r>
        <r>  0.0118  0.0038  0.0051  0.0005  0.0000  0.0000  0.0000  0.0000  0.0000 </r>
        <r>  0.0118  0.0038  0.0051  0.0005  0.0000  0.0000  0.0000  0.0000  0.0000 </r>
       </set>
       <set comment="band 42">
        <r>  0.0090  0.0029  0.0077  0.0007  0.0000  0.0000  0.0000  0.0000  0.0000 </r>
        <r>  0.0090  0.0029  0.0077  0.0007  0.0000  0.0000  0.0000  0.0000  0.0000 </r>
        <r>  0.0080  0.0026  0.0087  0.0008  0.0000  0.0000  0.0000  0.0000  0.0000 </r>
        <r>  0.0080  0.0026  0.0087  0.0008  0.0000  0.0000  0.0000  0.0000  0.0000 </r>
        <r>  0.0080  0.0026  0.0087  0.0008  0.0000  0.0000  0.0000  0.0000  0.0000 </r>
        <r>  0.0080  0.0026  0.0087  0.0008  0.0000  0.0000  0.0000  0.0000  0.0000 </r>
        <r>  0.0090  0.0029  0.0077  0.0007  0.0000  0.0000  0.0000  0.0000  0.0000 </r>
        <r>  0.0090  0.0029  0.0077  0.0007  0.0000  0.0000  0.0000  0.0000  0.0000 </r>
        <r>  0.0052  0.0017  0.0114  0.0010  0.0000  0.0000  0.0000  0.0000  0.0000 </r>
        <r>  0.0052  0.0017  0.0114  0.0010  0.0000  0.0000  0.0000  0.0000  0.0000 </r>
        <r>  0.0118  0.0038  0.0051  0.0005  0.0000  0.0000  0.0000  0.0000  0.0000 </r>
        <r>  0.0118  0.0038  0.0051  0.0005  0.0000  0.0000  0.0000  0.0000  0.0000 </r>
        <r>  0.0118  0.0038  0.0051  0.0005  0.0000  0.0000  0.0000  0.0000  0.0000 </r>
        <r>  0.0118  0.0038  0.0051  0.0005  0.0000  0.0000  0.0000  0.0000  0.0000 </r>
        <r>  0.0052  0.0017  0.0114  0.0010  0.0000  0.0000  0.0000  0.0000  0.0000 </r>
        <r>  0.0052  0.0017  0.0114  0.0010  0.0000  0.0000  0.0000  0.0000  0.0000 </r>
       </set>
       <set comment="band 43">
        <r>  0.0069  0.0005  0.0041  0.0009  0.0000  0.0000  0.0000  0.0000  0.0000 </r>
        <r>  0.0066  0.0005  0.0043  0.0009  0.0000  0.0000  0.0000  0.0000  0.0000 </r>
        <r>  0.0066  0.0005  0.0043  0.0009  0.0000  0.0000  0.0000  0.0000  0.0000 </r>
        <r>  0.0069  0.0005  0.0041  0.0009  0.0000  0.0000  0.0000  0.0000  0.0000 </r>
        <r>  0.0069  0.0005  0.0041  0.0009  0.0000  0.0000  0.0000  0.0000  0.0000 </r>
        <r>  0.0066  0.0005  0.0043  0.0009  0.0000  0.0000  0.0000  0.0000  0.0000 </r>
        <r>  0.0066  0.0005  0.0043  0.0009  0.0000  0.0000  0.0000  0.0000  0.0000 </r>
        <r>  0.0069  0.0005  0.0041  0.0009  0.0000  0.0000  0.0000  0.0000  0.0000 </r>
        <r>  0.0065  0.0005  0.0043  0.0009  0.0000  0.0000  0.0000  0.0000  0.0000 </r>
        <r>  0.0070  0.0006  0.0040  0.0009  0.0000  0.0000  0.0000  0.0000  0.0000 </r>
        <r>  0.0070  0.0006  0.0040  0.0009  0.0000  0.0000  0.0000  0.0000  0.0000 </r>
        <r>  0.0065  0.0005  0.0043  0.0009  0.0000  0.0000  0.0000  0.0000  0.0000 </r>
        <r>  0.0065  0.0005  0.0043  0.0009  0.0000  0.0000  0.0000  0.0000  0.0000 </r>
        <r>  0.0070  0.0006  0.0040  0.0009  0.0000  0.0000  0.0000  0.0000  0.0000 </r>
        <r>  0.0070  0.0006  0.0040  0.0009  0.0000  0.0000  0.0000  0.0000  0.0000 </r>
        <r>  0.0065  0.0005  0.0043  0.0009  0.0000  0.0000  0.0000  0.0000  0.0000 </r>
       </set>
       <set comment="band 44">
        <r>  0.0066  0.0005  0.0043  0.0009  0.0000  0.0000  0.0000  0.0000  0.0000 </r>
        <r>  0.0069  0.0005  0.0041  0.0009  0.0000  0.0000  0.0000  0.0000  0.0000 </r>
        <r>  0.0069  0.0005  0.0041  0.0009  0.0000  0.0000  0.0000  0.0000  0.0000 </r>
        <r>  0.0066  0.0005  0.0043  0.0009  0.0000  0.0000  0.0000  0.0000  0.0000 </r>
        <r>  0.0066  0.0005  0.0043  0.0009  0.0000  0.0000  0.0000  0.0000  0.0000 </r>
        <r>  0.0069  0.0005  0.0041  0.0009  0.0000  0.0000  0.0000  0.0000  0.0000 </r>
        <r>  0.0069  0.0005  0.0041  0.0009  0.0000  0.0000  0.0000  0.0000  0.0000 </r>
        <r>  0.0066  0.0005  0.0043  0.0009  0.0000  0.0000  0.0000  0.0000  0.0000 </r>
        <r>  0.0070  0.0006  0.0040  0.0009  0.0000  0.0000  0.0000  0.0000  0.0000 </r>
        <r>  0.0065  0.0005  0.0043  0.0009  0.0000  0.0000  0.0000  0.0000  0.0000 </r>
        <r>  0.0065  0.0005  0.0043  0.0009  0.0000  0.0000  0.0000  0.0000  0.0000 </r>
        <r>  0.0070  0.0006  0.0040  0.0009  0.0000  0.0000  0.0000  0.0000  0.0000 </r>
        <r>  0.0070  0.0006  0.0040  0.0009  0.0000  0.0000  0.0000  0.0000  0.0000 </r>
        <r>  0.0065  0.0005  0.0043  0.0009  0.0000  0.0000  0.0000  0.0000  0.0000 </r>
        <r>  0.0065  0.0005  0.0043  0.0009  0.0000  0.0000  0.0000  0.0000  0.0000 </r>
        <r>  0.0070  0.0006  0.0040  0.0009  0.0000  0.0000  0.0000  0.0000  0.0000 </r>
       </set>
       <set comment="band 45">
        <r>  0.0018  0.0021  0.0081  0.0028  0.0000  0.0000  0.0000  0.0000  0.0000 </r>
        <r>  0.0021  0.0020  0.0072  0.0024  0.0000  0.0000  0.0000  0.0000  0.0000 </r>
        <r>  0.0022  0.0020  0.0071  0.0025  0.0000  0.0000  0.0000  0.0000  0.0000 </r>
        <r>  0.0021  0.0018  0.0086  0.0034  0.0000  0.0000  0.0000  0.0000  0.0000 </r>
        <r>  0.0016  0.0023  0.0076  0.0026  0.0000  0.0000  0.0000  0.0000  0.0000 </r>
        <r>  0.0017  0.0025  0.0079  0.0030  0.0000  0.0000  0.0000  0.0000  0.0000 </r>
        <r>  0.0022  0.0019  0.0076  0.0027  0.0000  0.0000  0.0000  0.0000  0.0000 </r>
        <r>  0.0022  0.0017  0.0076  0.0025  0.0000  0.0000  0.0000  0.0000  0.0000 </r>
        <r>  0.0023  0.0021  0.0066  0.0023  0.0000  0.0000  0.0000  0.0000  0.0000 </r>
        <r>  0.0017  0.0019  0.0089  0.0034  0.0000  0.0000  0.0000  0.0000  0.0000 </r>
        <r>  0.0017  0.0019  0.0089  0.0032  0.0000  0.0000  0.0000  0.0000  0.0000 </r>
        <r>  0.0022  0.0022  0.0068  0.0023  0.0000  0.0000  0.0000  0.0000  0.0000 </r>
        <r>  0.0025  0.0019  0.0069  0.0024  0.0000  0.0000  0.0000  0.0000  0.0000 </r>
        <r>  0.0020  0.0016  0.0080  0.0025  0.0000  0.0000  0.0000  0.0000  0.0000 </r>
        <r>  0.0017  0.0018  0.0084  0.0030  0.0000  0.0000  0.0000  0.0000  0.0000 </r>
        <r>  0.0019  0.0027  0.0073  0.0028  0.0000  0.0000  0.0000  0.0000  0.0000 </r>
       </set>
       <set comment="band 46">
        <r>  0.0017  0.0024  0.0077  0.0029  0.0000  0.0000  0.0000  0.0000  0.0000 </r>
        <r>  0.0026  0.0015  0.0082  0.0031  0.0000  0.0000  0.0000  0.0000  0.0000 </r>
        <r>  0.0012  0.0029  0.0080  0.0026  0.0000  0.0000  0.0000  0.0000  0.0000 </r>
        <r>  0.0023  0.0020  0.0083  0.0034  0.0000  0.0000  0.0000  0.0000  0.0000 </r>
        <r>  0.0021  0.0018  0.0065  0.0019  0.0000  0.0000  0.0000  0.0000  0.0000 </r>
        <r>  0.0028  0.0011  0.0076  0.0025  0.0000  0.0000  0.0000  0.0000  0.0000 </r>
        <r>  0.0014  0.0027  0.0078  0.0029  0.0000  0.0000  0.0000  0.0000  0.0000 </r>
        <r>  0.0022  0.0021  0.0073  0.0026  0.0000  0.0000  0.0000  0.0000  0.0000 </r>
        <r>  0.0016  0.0021  0.0078  0.0026  0.0000  0.0000  0.0000  0.0000  0.0000 </r>
        <r>  0.0019  0.0028  0.0071  0.0028  0.0000  0.0000  0.0000  0.0000  0.0000 </r>
        <r>  0.0029  0.0016  0.0076  0.0029  0.0000  0.0000  0.0000  0.0000  0.0000 </r>
        <r>  0.0016  0.0019  0.0097  0.0039  0.0000  0.0000  0.0000  0.0000  0.0000 </r>
        <r>  0.0021  0.0016  0.0070  0.0019  0.0000  0.0000  0.0000  0.0000  0.0000 </r>
        <r>  0.0019  0.0026  0.0060  0.0019  0.0000  0.0000  0.0000  0.0000  0.0000 </r>
        <r>  0.0023  0.0022  0.0065  0.0021  0.0000  0.0000  0.0000  0.0000  0.0000 </r>
        <r>  0.0019  0.0016  0.0093  0.0040  0.0000  0.0000  0.0000  0.0000  0.0000 </r>
       </set>
       <set comment="band 47">
        <r>  0.0022  0.0029  0.0014  0.0018  0.0000  0.0000  0.0000  0.0000  0.0000 </r>
        <r>  0.0009  0.0014  0.0067  0.0130  0.0000  0.0000  0.0000  0.0000  0.0000 </r>
        <r>  0.0002  0.0003  0.0019  0.0030  0.0000  0.0000  0.0000  0.0000  0.0000 </r>
        <r>  0.0102  0.0124  0.0009  0.0011  0.0000  0.0000  0.0000  0.0000  0.0000 </r>
        <r>  0.0087  0.0103  0.0011  0.0021  0.0000  0.0000  0.0000  0.0000  0.0000 </r>
        <r>  0.0007  0.0005  0.0022  0.0042  0.0000  0.0000  0.0000  0.0000  0.0000 </r>
        <r>  0.0004  0.0006  0.0064  0.0115  0.0000  0.0000  0.0000  0.0000  0.0000 </r>
        <r>  0.0024  0.0032  0.0010  0.0007  0.0000  0.0000  0.0000  0.0000  0.0000 </r>
        <r>  0.0007  0.0002  0.0054  0.0092  0.0000  0.0000  0.0000  0.0000  0.0000 </r>
        <r>  0.0050  0.0054  0.0037  0.0062  0.0000  0.0000  0.0000  0.0000  0.0000 </r>
        <r>  0.0045  0.0062  0.0001  0.0002  0.0000  0.0000  0.0000  0.0000  0.0000 </r>
        <r>  0.0021  0.0032  0.0021  0.0040  0.0000  0.0000  0.0000  0.0000  0.0000 </r>
        <r>  0.0024  0.0042  0.0020  0.0045  0.0000  0.0000  0.0000  0.0000  0.0000 </r>
        <r>  0.0056  0.0080  0.0000  0.0000  0.0000  0.0000  0.0000  0.0000  0.0000 </r>
        <r>  0.0039  0.0038  0.0033  0.0046  0.0000  0.0000  0.0000  0.0000  0.0000 </r>
        <r>  0.0015  0.0008  0.0050  0.0085  0.0000  0.0000  0.0000  0.0000  0.0000 </r>
       </set>
       <set comment="band 48">
        <r>  0.0119  0.0160  0.0019  0.0021  0.0000  0.0000  0.0000  0.0000  0.0000 </r>
        <r>  0.0012  0.0007  0.0025  0.0056  0.0000  0.0000  0.0000  0.0000  0.0000 </r>
        <r>  0.0004  0.0007  0.0057  0.0166  0.0000  0.0000  0.0000  0.0000  0.0000 </r>
        <r>  0.0039  0.0078  0.0001  0.0007  0.0000  0.0000  0.0000  0.0000  0.0000 </r>
        <r>  0.0000  0.0001  0.0006  0.0014  0.0000  0.0000  0.0000  0.0000  0.0000 </r>
        <r>  0.0031  0.0060  0.0035  0.0049  0.0000  0.0000  0.0000  0.0000  0.0000 </r>
        <r>  0.0009  0.0009  0.0018  0.0036  0.0000  0.0000  0.0000  0.0000  0.0000 </r>
        <r>  0.0050  0.0047  0.0027  0.0061  0.0000  0.0000  0.0000  0.0000  0.0000 </r>
        <r>  0.0072  0.0109  0.0008  0.0029  0.0000  0.0000  0.0000  0.0000  0.0000 </r>
        <r>  0.0012  0.0009  0.0035  0.0082  0.0000  0.0000  0.0000  0.0000  0.0000 </r>
        <r>  0.0022  0.0019  0.0037  0.0081  0.0000  0.0000  0.0000  0.0000  0.0000 </r>
        <r>  0.0065  0.0089  0.0023  0.0031  0.0000  0.0000  0.0000  0.0000  0.0000 </r>
        <r>  0.0027  0.0024  0.0025  0.0078  0.0000  0.0000  0.0000  0.0000  0.0000 </r>
        <r>  0.0009  0.0024  0.0039  0.0070  0.0000  0.0000  0.0000  0.0000  0.0000 </r>
        <r>  0.0037  0.0073  0.0017  0.0030  0.0000  0.0000  0.0000  0.0000  0.0000 </r>
        <r>  0.0022  0.0019  0.0005  0.0009  0.0000  0.0000  0.0000  0.0000  0.0000 </r>
       </set>
      </set>
     </set>
    </set>
   </array>
  </projected>
 </calculation>
 <structure name="finalpos" >
  <crystal>
   <varray name="basis" >
    <v>       0.00000000       5.43581180       5.43581180 </v>
    <v>       5.43581180       0.00000000       5.43581180 </v>
    <v>       5.43581180       5.43581180       0.00000000 </v>
   </varray>
   <i name="volume">    321.23527682 </i>
   <varray name="rec_basis" >
    <v>      -0.09198258       0.09198258       0.09198258 </v>
    <v>       0.09198258      -0.09198258       0.09198258 </v>
    <v>       0.09198258       0.09198258      -0.09198258 </v>
   </varray>
  </crystal>
  <varray name="positions" >
   <v>       0.12500000       0.12500000       0.12500000 </v>
   <v>       0.62500000       0.12500000       0.12500000 </v>
   <v>       0.12500000       0.62500000       0.12500000 </v>
   <v>       0.62500000       0.62500000       0.12500000 </v>
   <v>       0.12500000       0.12500000       0.62500000 </v>
   <v>       0.62500000       0.12500000       0.62500000 </v>
   <v>       0.12500000       0.62500000       0.62500000 </v>
   <v>       0.62500000       0.62500000       0.62500000 </v>
   <v>       0.00000000       0.00000000       0.00000000 </v>
   <v>       0.50000000       0.00000000       0.00000000 </v>
   <v>       0.00000000       0.50000000       0.00000000 </v>
   <v>       0.50000000       0.50000000       0.00000000 </v>
   <v>       0.00000000       0.00000000       0.50000000 </v>
   <v>       0.50000000       0.00000000       0.50000000 </v>
   <v>       0.00000000       0.50000000       0.50000000 </v>
   <v>       0.50000000       0.50000000       0.50000000 </v>
  </varray>
 </structure>
</modeling>
