  16  16   1   0
  0.2007720E+02  0.7687399E-09  0.7687399E-09  0.7687399E-09  0.5000000E-15
   1.0000000000000000E-004
  CAR 
 unknown system                          
     11.53395112     -7.05444706 1000      5.80415646      1.00000000
     -7.054  0.0000E+00  0.0000E+00
     -7.036  0.0000E+00  0.0000E+00
     -7.017  0.0000E+00  0.0000E+00
     -6.999  0.0000E+00  0.0000E+00
     -6.980  0.0000E+00  0.0000E+00
     -6.961  0.0000E+00  0.0000E+00
     -6.943  0.0000E+00  0.0000E+00
     -6.924  0.0000E+00  0.0000E+00
     -6.906  0.0000E+00  0.0000E+00
     -6.887  0.0000E+00  0.0000E+00
     -6.868  0.0000E+00  0.0000E+00
     -6.850  0.0000E+00  0.0000E+00
     -6.831  0.0000E+00  0.0000E+00
     -6.813  0.0000E+00  0.0000E+00
     -6.794  0.0000E+00  0.0000E+00
     -6.775  0.0000E+00  0.0000E+00
     -6.757  0.0000E+00  0.0000E+00
     -6.738  0.0000E+00  0.0000E+00
     -6.720  0.0000E+00  0.0000E+00
     -6.701  0.0000E+00  0.0000E+00
     -6.682  0.0000E+00  0.0000E+00
     -6.664  0.0000E+00  0.0000E+00
     -6.645  0.0000E+00  0.0000E+00
     -6.626  0.0000E+00  0.0000E+00
     -6.608  0.0000E+00  0.0000E+00
     -6.589  0.0000E+00  0.0000E+00
     -6.571  0.0000E+00  0.0000E+00
     -6.552  0.0000E+00  0.0000E+00
     -6.533  0.0000E+00  0.0000E+00
     -6.515  0.0000E+00  0.0000E+00
     -6.496  0.0000E+00  0.0000E+00
     -6.478  0.0000E+00  0.0000E+00
     -6.459  0.0000E+00  0.0000E+00
     -6.440  0.0000E+00  0.0000E+00
     -6.422  0.0000E+00  0.0000E+00
     -6.403  0.0000E+00  0.0000E+00
     -6.385  0.0000E+00  0.0000E+00
     -6.366  0.0000E+00  0.0000E+00
     -6.347  0.0000E+00  0.0000E+00
     -6.329  0.0000E+00  0.0000E+00
     -6.310  0.0000E+00  0.0000E+00
     -6.292  0.0000E+00  0.0000E+00
     -6.273  0.0000E+00  0.0000E+00
     -6.254  0.5741E-10  0.1068E-11
     -6.236  0.5199E-04  0.9674E-06
     -6.217  0.7004E-01  0.1304E-02
     -6.199  0.3977E+00  0.8704E-02
     -6.180  0.2984E-01  0.9259E-02
     -6.161  0.7055E-05  0.9259E-02
     -6.143  0.1161E-02  0.9281E-02
     -6.124  0.8333E+00  0.2479E-01
     -6.105  0.3030E+01  0.8116E-01
     -6.087  0.1774E+01  0.1142E+00
     -6.068  0.1320E+01  0.1387E+00
     -6.050  0.8368E-02  0.1389E+00
     -6.031  0.9868E-07  0.1389E+00
     -6.012  0.4755E-09  0.1389E+00
     -5.994  0.4976E-03  0.1389E+00
     -5.975  0.7670E+00  0.1532E+00
     -5.957  0.4804E+01  0.2425E+00
     -5.938  0.4003E+00  0.2500E+00
     -5.919  0.1086E-03  0.2500E+00
     -5.901  0.3647E-02  0.2501E+00
     -5.882  0.2543E+01  0.2974E+00
     -5.864  0.9051E+01  0.4658E+00
     -5.845  0.2946E+01  0.5206E+00
     -5.826  0.1376E+01  0.5462E+00
     -5.808  0.4949E-02  0.5463E+00
     -5.789  0.3076E-07  0.5463E+00
     -5.771  0.1363E-09  0.5463E+00
     -5.752  0.1769E-03  0.5463E+00
     -5.733  0.3332E+00  0.5525E+00
     -5.715  0.2417E+01  0.5975E+00
     -5.696  0.2350E+00  0.6019E+00
     -5.678  0.7847E-04  0.6019E+00
     -5.659  0.3266E-01  0.6025E+00
     -5.640  0.5243E+01  0.7000E+00
     -5.622  0.6847E+01  0.8274E+00
     -5.603  0.8519E+01  0.9859E+00
     -5.584  0.3237E+01  0.1046E+01
     -5.566  0.7156E-02  0.1046E+01
     -5.547  0.2592E-07  0.1046E+01
     -5.529  0.1197E-05  0.1046E+01
     -5.510  0.6118E-01  0.1047E+01
     -5.491  0.6215E+01  0.1163E+01
     -5.473  0.5625E+01  0.1268E+01
     -5.454  0.4198E-01  0.1269E+01
     -5.436  0.2250E-03  0.1269E+01
     -5.417  0.4628E+00  0.1277E+01
     -5.398  0.8238E+01  0.1430E+01
     -5.380  0.7134E+01  0.1563E+01
     -5.361  0.8907E-01  0.1565E+01
     -5.343  0.2422E-05  0.1565E+01
     -5.324  0.8221E-13  0.1565E+01
     -5.305  0.8927E-10  0.1565E+01
     -5.287  0.1770E-03  0.1565E+01
     -5.268  0.4963E+00  0.1574E+01
     -5.250  0.4841E+01  0.1664E+01
     -5.231  0.6336E+00  0.1676E+01
     -5.212  0.3137E-03  0.1676E+01
     -5.194  0.9676E-02  0.1676E+01
     -5.175  0.5639E+01  0.1781E+01
     -5.157  0.1940E+02  0.2142E+01
     -5.138  0.1027E+02  0.2333E+01
     -5.119  0.2980E+01  0.2389E+01
     -5.101  0.5115E+00  0.2398E+01
     -5.082  0.5132E-03  0.2398E+01
     -5.063  0.8330E-09  0.2398E+01
     -5.045  0.1561E-03  0.2398E+01
     -5.026  0.6904E+00  0.2411E+01
     -5.008  0.9521E+01  0.2588E+01
     -4.989  0.1730E+01  0.2620E+01
     -4.970  0.1402E+00  0.2623E+01
     -4.952  0.7521E+01  0.2763E+01
     -4.933  0.4269E+01  0.2842E+01
     -4.915  0.1990E+01  0.2879E+01
     -4.896  0.9388E+01  0.3054E+01
     -4.877  0.5799E+00  0.3065E+01
     -4.859  0.1668E-03  0.3065E+01
     -4.840  0.2458E+00  0.3069E+01
     -4.822  0.3187E+01  0.3129E+01
     -4.803  0.5472E+00  0.3139E+01
     -4.784  0.3922E-03  0.3139E+01
     -4.766  0.4472E-07  0.3139E+01
     -4.747  0.9758E-02  0.3139E+01
     -4.729  0.3598E+01  0.3206E+01
     -4.710  0.8153E+01  0.3358E+01
     -4.691  0.7933E+01  0.3505E+01
     -4.673  0.1578E+02  0.3799E+01
     -4.654  0.3580E+00  0.3806E+01
     -4.636  0.1935E-04  0.3806E+01
     -4.617  0.8209E-02  0.3806E+01
     -4.598  0.5311E+01  0.3905E+01
     -4.580  0.1783E+02  0.4236E+01
     -4.561  0.7472E+00  0.4250E+01
     -4.543  0.3642E+01  0.4318E+01
     -4.524  0.8089E+01  0.4468E+01
     -4.505  0.2088E+00  0.4472E+01
     -4.487  0.5162E+01  0.4568E+01
     -4.468  0.1794E+02  0.4902E+01
     -4.449  0.7730E+00  0.4917E+01
     -4.431  0.8977E-04  0.4917E+01
     -4.412  0.1386E-10  0.4917E+01
     -4.394  0.0000E+00  0.4917E+01
     -4.375  0.1800E-10  0.4917E+01
     -4.356  0.8292E-04  0.4917E+01
     -4.338  0.5164E+00  0.4926E+01
     -4.319  0.9323E+01  0.5100E+01
     -4.301  0.7895E+01  0.5247E+01
     -4.282  0.8967E+01  0.5413E+01
     -4.263  0.1706E+00  0.5417E+01
     -4.245  0.8103E-05  0.5417E+01
     -4.226  0.1234E-01  0.5417E+01
     -4.208  0.4629E+01  0.5503E+01
     -4.189  0.1098E+02  0.5707E+01
     -4.170  0.8202E+00  0.5723E+01
     -4.152  0.4844E+01  0.5813E+01
     -4.133  0.6269E+00  0.5824E+01
     -4.115  0.4117E+01  0.5901E+01
     -4.096  0.1544E+02  0.6188E+01
     -4.077  0.2286E+02  0.6614E+01
     -4.059  0.5335E+01  0.6713E+01
     -4.040  0.8205E-02  0.6713E+01
     -4.022  0.2005E-07  0.6713E+01
     -4.003  0.6245E-05  0.6713E+01
     -3.984  0.2033E+00  0.6717E+01
     -3.966  0.1442E+02  0.6985E+01
     -3.947  0.1850E+02  0.7329E+01
     -3.928  0.3045E+01  0.7386E+01
     -3.910  0.8852E+01  0.7551E+01
     -3.891  0.2742E+01  0.7602E+01
     -3.873  0.4794E+00  0.7611E+01
     -3.854  0.1170E+02  0.7828E+01
     -3.835  0.1624E+02  0.8131E+01
     -3.817  0.9043E+01  0.8299E+01
     -3.798  0.3564E+00  0.8306E+01
     -3.780  0.3951E+00  0.8313E+01
     -3.761  0.8997E+01  0.8480E+01
     -3.742  0.2547E+01  0.8528E+01
     -3.724  0.2763E+00  0.8533E+01
     -3.705  0.8524E+01  0.8691E+01
     -3.687  0.3139E+01  0.8750E+01
     -3.668  0.6553E-02  0.8750E+01
     -3.649  0.3852E-02  0.8750E+01
     -3.631  0.2594E+01  0.8798E+01
     -3.612  0.9239E+01  0.8970E+01
     -3.594  0.2075E+02  0.9356E+01
     -3.575  0.1509E+02  0.9637E+01
     -3.556  0.1090E+00  0.9639E+01
     -3.538  0.4403E+01  0.9721E+01
     -3.519  0.7394E+01  0.9859E+01
     -3.501  0.1272E+01  0.9882E+01
     -3.482  0.2643E+02  0.1037E+02
     -3.463  0.1827E+02  0.1071E+02
     -3.445  0.1920E+01  0.1075E+02
     -3.426  0.1688E-02  0.1075E+02
     -3.407  0.2267E-08  0.1075E+02
     -3.389  0.1358E-05  0.1075E+02
     -3.370  0.9006E-01  0.1075E+02
     -3.352  0.1147E+02  0.1097E+02
     -3.333  0.1221E+02  0.1119E+02
     -3.314  0.1163E+00  0.1119E+02
     -3.296  0.3038E+01  0.1125E+02
     -3.277  0.1984E+02  0.1162E+02
     -3.259  0.3889E+01  0.1169E+02
     -3.240  0.1060E+00  0.1169E+02
     -3.221  0.4035E-03  0.1169E+02
     -3.203  0.1035E+01  0.1171E+02
     -3.184  0.9689E+01  0.1189E+02
     -3.166  0.2372E+01  0.1194E+02
     -3.147  0.1025E+02  0.1213E+02
     -3.128  0.1045E+02  0.1232E+02
     -3.110  0.2032E+01  0.1236E+02
     -3.091  0.2017E-02  0.1236E+02
     -3.073  0.3049E-08  0.1236E+02
     -3.054  0.3068E-11  0.1236E+02
     -3.035  0.3363E-04  0.1236E+02
     -3.017  0.4793E+00  0.1237E+02
     -2.998  0.1670E+02  0.1268E+02
     -2.980  0.1096E+02  0.1288E+02
     -2.961  0.7551E+01  0.1303E+02
     -2.942  0.1822E+01  0.1306E+02
     -2.924  0.2899E+02  0.1360E+02
     -2.905  0.1108E+02  0.1380E+02
     -2.886  0.5035E-01  0.1381E+02
     -2.868  0.6430E-06  0.1381E+02
     -2.849  0.1061E-13  0.1381E+02
     -2.831  0.0000E+00  0.1381E+02
     -2.812  0.0000E+00  0.1381E+02
     -2.793  0.0000E+00  0.1381E+02
     -2.775  0.0000E+00  0.1381E+02
     -2.756  0.0000E+00  0.1381E+02
     -2.738  0.2851E-13  0.1381E+02
     -2.719  0.1186E-05  0.1381E+02
     -2.700  0.6087E-01  0.1381E+02
     -2.682  0.6234E+01  0.1392E+02
     -2.663  0.1247E+02  0.1415E+02
     -2.645  0.1640E+02  0.1446E+02
     -2.626  0.6718E+00  0.1447E+02
     -2.607  0.1069E-03  0.1447E+02
     -2.589  0.1281E-02  0.1447E+02
     -2.570  0.2557E+01  0.1452E+02
     -2.552  0.1936E+02  0.1488E+02
     -2.533  0.1967E+01  0.1492E+02
     -2.514  0.6928E-03  0.1492E+02
     -2.496  0.1999E-08  0.1492E+02
     -2.477  0.1828E-02  0.1492E+02
     -2.459  0.2963E+01  0.1497E+02
     -2.440  0.1925E+02  0.1533E+02
     -2.421  0.1717E+01  0.1536E+02
     -2.403  0.5846E+01  0.1547E+02
     -2.384  0.5995E+01  0.1558E+02
     -2.365  0.5325E-01  0.1558E+02
     -2.347  0.9250E-06  0.1558E+02
     -2.328  0.1989E-13  0.1558E+02
     -2.310  0.0000E+00  0.1558E+02
     -2.291  0.0000E+00  0.1558E+02
     -2.272  0.0000E+00  0.1558E+02
     -2.254  0.9944E-15  0.1558E+02
     -2.235  0.9513E-07  0.1558E+02
     -2.217  0.1116E-01  0.1558E+02
     -2.198  0.2344E+01  0.1563E+02
     -2.179  0.3563E+01  0.1569E+02
     -2.161  0.5406E-01  0.1569E+02
     -2.142  0.1758E-05  0.1569E+02
     -2.124  0.7226E-13  0.1569E+02
     -2.105  0.1123E-09  0.1569E+02
     -2.086  0.1569E-03  0.1569E+02
     -2.068  0.3169E+00  0.1570E+02
     -2.049  0.2421E+01  0.1575E+02
     -2.031  0.1014E+01  0.1576E+02
     -2.012  0.9584E+01  0.1594E+02
     -1.993  0.1592E+01  0.1597E+02
     -1.975  0.1091E-02  0.1597E+02
     -1.956  0.2275E-01  0.1597E+02
     -1.938  0.4714E+01  0.1606E+02
     -1.919  0.7100E+01  0.1619E+02
     -1.900  0.5622E+00  0.1620E+02
     -1.882  0.4830E+01  0.1629E+02
     -1.863  0.6852E+00  0.1631E+02
     -1.844  0.3783E-03  0.1631E+02
     -1.826  0.1143E-03  0.1631E+02
     -1.807  0.4096E+00  0.1631E+02
     -1.789  0.4809E+01  0.1640E+02
     -1.770  0.7523E+00  0.1642E+02
     -1.751  0.4746E-03  0.1642E+02
     -1.733  0.4401E-09  0.1642E+02
     -1.714  0.0000E+00  0.1642E+02
     -1.696  0.0000E+00  0.1642E+02
     -1.677  0.0000E+00  0.1642E+02
     -1.658  0.0000E+00  0.1642E+02
     -1.640  0.0000E+00  0.1642E+02
     -1.621  0.0000E+00  0.1642E+02
     -1.603  0.0000E+00  0.1642E+02
     -1.584  0.0000E+00  0.1642E+02
     -1.565  0.0000E+00  0.1642E+02
     -1.547  0.1362E-10  0.1642E+02
     -1.528  0.6936E-04  0.1642E+02
     -1.510  0.4750E+00  0.1643E+02
     -1.491  0.9200E+01  0.1660E+02
     -1.472  0.2266E+01  0.1664E+02
     -1.454  0.2680E-02  0.1664E+02
     -1.435  0.7884E-08  0.1664E+02
     -1.417  0.2818E-02  0.1664E+02
     -1.398  0.4556E+01  0.1672E+02
     -1.379  0.4327E+02  0.1753E+02
     -1.361  0.1184E+02  0.1775E+02
     -1.342  0.4228E-01  0.1775E+02
     -1.323  0.6021E-02  0.1775E+02
     -1.305  0.3047E+01  0.1781E+02
     -1.286  0.8601E+01  0.1797E+02
     -1.268  0.2886E+00  0.1797E+02
     -1.249  0.2159E+00  0.1798E+02
     -1.230  0.1613E+01  0.1801E+02
     -1.212  0.1616E+00  0.1801E+02
     -1.193  0.6679E-04  0.1801E+02
     -1.175  0.1928E+00  0.1801E+02
     -1.156  0.8043E+01  0.1816E+02
     -1.137  0.8452E+01  0.1832E+02
     -1.119  0.1660E+02  0.1863E+02
     -1.100  0.3709E+01  0.1870E+02
     -1.082  0.9698E+01  0.1888E+02
     -1.063  0.3919E+01  0.1895E+02
     -1.044  0.2887E+02  0.1949E+02
     -1.026  0.1234E+02  0.1972E+02
     -1.007  0.8939E+01  0.1988E+02
     -0.989  0.1760E+02  0.2021E+02
     -0.970  0.2983E+02  0.2077E+02
     -0.951  0.9774E+01  0.2095E+02
     -0.933  0.3265E+01  0.2101E+02
     -0.914  0.7353E-02  0.2101E+02
     -0.896  0.2731E+00  0.2101E+02
     -0.877  0.9517E+01  0.2119E+02
     -0.858  0.1282E+02  0.2143E+02
     -0.840  0.1275E+01  0.2145E+02
     -0.821  0.2407E+00  0.2146E+02
     -0.802  0.1741E+02  0.2178E+02
     -0.784  0.1795E+02  0.2212E+02
     -0.765  0.2282E+00  0.2212E+02
     -0.747  0.1423E+01  0.2215E+02
     -0.728  0.1219E+02  0.2237E+02
     -0.709  0.2805E+01  0.2243E+02
     -0.691  0.2351E+01  0.2247E+02
     -0.672  0.6832E+00  0.2248E+02
     -0.654  0.1703E+02  0.2280E+02
     -0.635  0.1114E+02  0.2301E+02
     -0.616  0.2580E+02  0.2349E+02
     -0.598  0.5203E+01  0.2358E+02
     -0.579  0.8252E-02  0.2358E+02
     -0.561  0.1606E+01  0.2361E+02
     -0.542  0.9578E+01  0.2379E+02
     -0.523  0.7576E+00  0.2381E+02
     -0.505  0.1918E-03  0.2381E+02
     -0.486  0.2312E-02  0.2381E+02
     -0.468  0.2142E+01  0.2385E+02
     -0.449  0.9283E+01  0.2402E+02
     -0.430  0.5164E+00  0.2403E+02
     -0.412  0.8293E-04  0.2403E+02
     -0.393  0.1366E-04  0.2403E+02
     -0.375  0.2161E+00  0.2403E+02
     -0.356  0.8194E+01  0.2418E+02
     -0.337  0.3523E+01  0.2425E+02
     -0.319  0.9165E-02  0.2425E+02
     -0.300  0.1294E-01  0.2425E+02
     -0.281  0.6429E+01  0.2437E+02
     -0.263  0.3544E+02  0.2503E+02
     -0.244  0.1770E+02  0.2536E+02
     -0.226  0.1375E+00  0.2536E+02
     -0.207  0.2196E-05  0.2536E+02
     -0.188  0.4508E-13  0.2536E+02
     -0.170  0.0000E+00  0.2536E+02
     -0.151  0.0000E+00  0.2536E+02
     -0.133  0.0000E+00  0.2536E+02
     -0.114  0.0000E+00  0.2536E+02
     -0.095  0.6630E-15  0.2536E+02
     -0.077  0.9433E-07  0.2536E+02
     -0.058  0.1503E-01  0.2536E+02
     -0.040  0.4145E+01  0.2544E+02
     -0.021  0.7634E+01  0.2558E+02
     -0.002  0.1524E+00  0.2558E+02
      0.016  0.2409E+01  0.2563E+02
      0.035  0.9099E+01  0.2580E+02
      0.053  0.4670E+00  0.2581E+02
      0.072  0.6784E+01  0.2593E+02
      0.091  0.2562E+02  0.2641E+02
      0.109  0.6308E+01  0.2653E+02
      0.128  0.8708E+01  0.2669E+02
      0.146  0.3120E+00  0.2669E+02
      0.165  0.2879E-04  0.2669E+02
      0.184  0.3495E-11  0.2669E+02
      0.202  0.0000E+00  0.2669E+02
      0.221  0.2828E-12  0.2669E+02
      0.239  0.4360E-05  0.2669E+02
      0.258  0.8621E-01  0.2670E+02
      0.277  0.3937E+01  0.2677E+02
      0.295  0.5446E+01  0.2687E+02
      0.314  0.8225E+01  0.2702E+02
      0.333  0.2197E+00  0.2703E+02
      0.351  0.1412E-04  0.2703E+02
      0.370  0.2973E-05  0.2703E+02
      0.388  0.5814E-01  0.2703E+02
      0.407  0.2625E+01  0.2708E+02
      0.426  0.1294E+01  0.2710E+02
      0.444  0.4537E-02  0.2710E+02
      0.463  0.1623E+01  0.2713E+02
      0.481  0.1923E+02  0.2749E+02
      0.500  0.3034E+01  0.2755E+02
      0.519  0.1937E-02  0.2755E+02
      0.537  0.1779E-05  0.2755E+02
      0.556  0.7553E-01  0.2755E+02
      0.574  0.6551E+01  0.2767E+02
      0.593  0.5283E+01  0.2777E+02
      0.612  0.3354E-01  0.2777E+02
      0.630  0.3962E-06  0.2777E+02
      0.649  0.5304E-14  0.2777E+02
      0.667  0.0000E+00  0.2777E+02
      0.686  0.0000E+00  0.2777E+02
      0.705  0.5622E-09  0.2777E+02
      0.723  0.4199E-03  0.2777E+02
      0.742  0.4729E+00  0.2778E+02
      0.760  0.2375E+01  0.2782E+02
      0.779  0.6950E+01  0.2795E+02
      0.798  0.1661E+02  0.2826E+02
      0.816  0.4659E+00  0.2827E+02
      0.835  0.3186E-04  0.2827E+02
      0.854  0.1415E-01  0.2827E+02
      0.872  0.4180E+01  0.2835E+02
      0.891  0.1494E+02  0.2862E+02
      0.909  0.4733E+01  0.2871E+02
      0.928  0.2064E-01  0.2871E+02
      0.947  0.1653E-06  0.2871E+02
      0.965  0.1326E-14  0.2871E+02
      0.984  0.0000E+00  0.2871E+02
      1.002  0.0000E+00  0.2871E+02
      1.021  0.1389E-08  0.2871E+02
      1.040  0.1254E-02  0.2871E+02
      1.058  0.1684E+01  0.2874E+02
      1.077  0.9543E+01  0.2892E+02
      1.095  0.7145E+00  0.2894E+02
      1.114  0.1684E-03  0.2894E+02
      1.133  0.5474E-10  0.2894E+02
      1.151  0.0000E+00  0.2894E+02
      1.170  0.0000E+00  0.2894E+02
      1.188  0.0000E+00  0.2894E+02
      1.207  0.0000E+00  0.2894E+02
      1.226  0.0000E+00  0.2894E+02
      1.244  0.1657E-13  0.2894E+02
      1.263  0.6579E-06  0.2894E+02
      1.281  0.3224E-01  0.2894E+02
      1.300  0.3598E+01  0.2900E+02
      1.319  0.1242E+02  0.2923E+02
      1.337  0.1531E+02  0.2952E+02
      1.356  0.1024E+02  0.2971E+02
      1.375  0.1969E+00  0.2971E+02
      1.393  0.1106E-04  0.2971E+02
      1.412  0.2599E-11  0.2971E+02
      1.430  0.1859E-04  0.2971E+02
      1.449  0.2522E+00  0.2972E+02
      1.468  0.9902E+01  0.2990E+02
      1.486  0.2250E+02  0.3032E+02
      1.505  0.1493E+02  0.3060E+02
      1.523  0.1202E+02  0.3082E+02
      1.542  0.1190E+00  0.3082E+02
      1.561  0.3116E+01  0.3088E+02
      1.579  0.8544E+01  0.3104E+02
      1.598  0.2766E+00  0.3105E+02
      1.616  0.3087E+00  0.3105E+02
      1.635  0.1537E+02  0.3134E+02
      1.654  0.8176E+01  0.3149E+02
      1.672  0.2888E-01  0.3149E+02
      1.691  0.5585E+00  0.3150E+02
      1.709  0.1425E+02  0.3177E+02
      1.728  0.8985E+01  0.3193E+02
      1.747  0.1026E+00  0.3194E+02
      1.765  0.5468E+01  0.3204E+02
      1.784  0.3432E+02  0.3268E+02
      1.802  0.1826E+02  0.3302E+02
      1.821  0.2027E+02  0.3339E+02
      1.840  0.1736E+02  0.3372E+02
      1.858  0.4859E+01  0.3381E+02
      1.877  0.8194E+01  0.3396E+02
      1.896  0.2708E+01  0.3401E+02
      1.914  0.1244E-01  0.3401E+02
      1.933  0.2205E-01  0.3401E+02
      1.951  0.4871E+01  0.3410E+02
      1.970  0.2334E+02  0.3453E+02
      1.989  0.1348E+02  0.3479E+02
      2.007  0.9495E-01  0.3479E+02
      2.026  0.6872E+00  0.3480E+02
      2.044  0.4829E+01  0.3489E+02
      2.063  0.6755E+00  0.3490E+02
      2.082  0.9258E+01  0.3507E+02
      2.100  0.1318E+02  0.3532E+02
      2.119  0.1269E+01  0.3534E+02
      2.137  0.9095E+01  0.3551E+02
      2.156  0.2222E+02  0.3593E+02
      2.175  0.4567E+01  0.3601E+02
      2.193  0.7229E+01  0.3615E+02
      2.212  0.1738E+02  0.3647E+02
      2.230  0.1123E+02  0.3668E+02
      2.249  0.3940E+01  0.3675E+02
      2.268  0.1955E+02  0.3711E+02
      2.286  0.4263E+01  0.3719E+02
      2.305  0.1929E+02  0.3755E+02
      2.323  0.1404E+02  0.3781E+02
      2.342  0.1522E+01  0.3784E+02
      2.361  0.9686E-03  0.3784E+02
      2.379  0.2501E-07  0.3784E+02
      2.398  0.9143E-02  0.3784E+02
      2.417  0.5523E+01  0.3795E+02
      2.435  0.1766E+02  0.3827E+02
      2.454  0.6891E+00  0.3829E+02
      2.472  0.8212E-04  0.3829E+02
      2.491  0.2783E+00  0.3829E+02
      2.510  0.1505E+02  0.3857E+02
      2.528  0.8525E+01  0.3873E+02
      2.547  0.3269E+00  0.3874E+02
      2.565  0.9697E+01  0.3892E+02
      2.584  0.2157E+02  0.3932E+02
      2.603  0.5529E+01  0.3942E+02
      2.621  0.1412E+02  0.3968E+02
      2.640  0.2052E+02  0.4007E+02
      2.658  0.1069E+02  0.4027E+02
      2.677  0.2880E+01  0.4032E+02
      2.696  0.9536E+01  0.4050E+02
      2.714  0.7072E+00  0.4051E+02
      2.733  0.1724E+01  0.4054E+02
      2.751  0.1976E+02  0.4091E+02
      2.770  0.1960E+02  0.4127E+02
      2.789  0.6857E+01  0.4140E+02
      2.807  0.1153E+02  0.4162E+02
      2.826  0.1914E+02  0.4197E+02
      2.844  0.1626E+02  0.4227E+02
      2.863  0.1018E+02  0.4246E+02
      2.882  0.1456E+02  0.4273E+02
      2.900  0.1106E+02  0.4294E+02
      2.919  0.3677E+01  0.4301E+02
      2.938  0.2180E-01  0.4301E+02
      2.956  0.5915E+01  0.4312E+02
      2.975  0.3397E+02  0.4375E+02
      2.993  0.8237E+01  0.4390E+02
      3.012  0.5175E+01  0.4400E+02
      3.031  0.9706E+01  0.4418E+02
      3.049  0.2663E+01  0.4423E+02
      3.068  0.1539E-01  0.4423E+02
      3.086  0.2686E+01  0.4428E+02
      3.105  0.2515E+02  0.4475E+02
      3.124  0.4354E+02  0.4556E+02
      3.142  0.1338E+02  0.4581E+02
      3.161  0.5215E+01  0.4591E+02
      3.179  0.1841E+02  0.4625E+02
      3.198  0.2503E+02  0.4671E+02
      3.217  0.3909E+01  0.4679E+02
      3.235  0.7017E-02  0.4679E+02
      3.254  0.2423E-07  0.4679E+02
      3.272  0.3513E-03  0.4679E+02
      3.291  0.1661E+01  0.4682E+02
      3.310  0.3046E+02  0.4738E+02
      3.328  0.3782E+02  0.4809E+02
      3.347  0.1845E+02  0.4843E+02
      3.365  0.9302E+01  0.4860E+02
      3.384  0.7265E+01  0.4874E+02
      3.403  0.9607E+01  0.4892E+02
      3.421  0.8578E+01  0.4908E+02
      3.440  0.3695E+01  0.4915E+02
      3.459  0.8278E+01  0.4930E+02
      3.477  0.2295E+00  0.4931E+02
      3.496  0.1192E+01  0.4933E+02
      3.514  0.9692E+01  0.4951E+02
      3.533  0.1681E+01  0.4954E+02
      3.552  0.9521E+01  0.4972E+02
      3.570  0.1279E+02  0.4995E+02
      3.589  0.1434E+02  0.5022E+02
      3.607  0.2444E+02  0.5068E+02
      3.626  0.3103E+02  0.5125E+02
      3.645  0.7598E+01  0.5139E+02
      3.663  0.4664E+01  0.5148E+02
      3.682  0.8238E+01  0.5163E+02
      3.700  0.2428E+00  0.5164E+02
      3.719  0.3591E+01  0.5171E+02
      3.738  0.1157E+02  0.5192E+02
      3.756  0.1038E+02  0.5211E+02
      3.775  0.1462E+02  0.5239E+02
      3.793  0.1051E+02  0.5258E+02
      3.812  0.1051E+01  0.5260E+02
      3.831  0.2183E+02  0.5301E+02
      3.849  0.1355E+02  0.5326E+02
      3.868  0.9914E+01  0.5344E+02
      3.886  0.8636E+01  0.5361E+02
      3.905  0.9931E+01  0.5379E+02
      3.924  0.8718E+01  0.5395E+02
      3.942  0.4052E+01  0.5403E+02
      3.961  0.3059E+01  0.5408E+02
      3.980  0.1680E+02  0.5440E+02
      3.998  0.6565E+01  0.5452E+02
      4.017  0.9157E+01  0.5469E+02
      4.035  0.7957E+01  0.5484E+02
      4.054  0.1014E+02  0.5503E+02
      4.073  0.6030E+01  0.5514E+02
      4.091  0.8989E+01  0.5531E+02
      4.110  0.3279E+02  0.5592E+02
      4.128  0.1545E+02  0.5620E+02
      4.147  0.2815E+01  0.5626E+02
      4.166  0.1437E+02  0.5652E+02
      4.184  0.1575E+02  0.5682E+02
      4.203  0.2308E+02  0.5725E+02
      4.221  0.1748E+02  0.5757E+02
      4.240  0.6565E+01  0.5769E+02
      4.259  0.6809E-01  0.5769E+02
      4.277  0.1462E-05  0.5769E+02
      4.296  0.1029E-11  0.5769E+02
      4.314  0.1261E-04  0.5769E+02
      4.333  0.2102E+00  0.5770E+02
      4.352  0.1036E+02  0.5789E+02
      4.370  0.1370E+02  0.5815E+02
      4.389  0.1014E+02  0.5833E+02
      4.407  0.1428E+01  0.5836E+02
      4.426  0.3373E+01  0.5842E+02
      4.445  0.2580E+02  0.5890E+02
      4.463  0.2361E+02  0.5934E+02
      4.482  0.1970E+02  0.5971E+02
      4.501  0.5104E+01  0.5981E+02
      4.519  0.2336E+01  0.5985E+02
      4.538  0.9185E+01  0.6002E+02
      4.556  0.4223E+01  0.6010E+02
      4.575  0.6056E+01  0.6021E+02
      4.594  0.2001E+00  0.6021E+02
      4.612  0.4931E+01  0.6031E+02
      4.631  0.3152E+01  0.6036E+02
      4.649  0.8230E+01  0.6052E+02
      4.668  0.3496E+01  0.6058E+02
      4.687  0.8957E-02  0.6058E+02
      4.705  0.3818E-07  0.6058E+02
      4.724  0.7080E-05  0.6058E+02
      4.742  0.1315E+00  0.6059E+02
      4.761  0.8884E+01  0.6075E+02
      4.780  0.2936E+02  0.6130E+02
      4.798  0.5409E+01  0.6140E+02
      4.817  0.2109E+01  0.6144E+02
      4.835  0.1853E+02  0.6178E+02
      4.854  0.3244E+01  0.6184E+02
      4.873  0.3429E+00  0.6185E+02
      4.891  0.6242E+01  0.6197E+02
      4.910  0.3330E+01  0.6203E+02
      4.928  0.4149E-01  0.6203E+02
      4.947  0.5417E+00  0.6204E+02
      4.966  0.9327E+01  0.6221E+02
      4.984  0.2298E+01  0.6225E+02
      5.003  0.5879E+01  0.6236E+02
      5.021  0.1855E+01  0.6240E+02
      5.040  0.7651E+00  0.6241E+02
      5.059  0.1045E+02  0.6261E+02
      5.077  0.9463E+01  0.6278E+02
      5.096  0.6141E+01  0.6290E+02
      5.115  0.5610E-01  0.6290E+02
      5.133  0.6843E-01  0.6290E+02
      5.152  0.6393E+01  0.6302E+02
      5.170  0.5445E+01  0.6312E+02
      5.189  0.9190E+00  0.6314E+02
      5.208  0.4752E+01  0.6323E+02
      5.226  0.3370E+00  0.6323E+02
      5.245  0.7398E-04  0.6323E+02
      5.263  0.1900E-08  0.6323E+02
      5.282  0.1282E-02  0.6323E+02
      5.301  0.1331E+01  0.6326E+02
      5.319  0.7413E+01  0.6339E+02
      5.338  0.4960E+01  0.6349E+02
      5.356  0.2282E+00  0.6349E+02
      5.375  0.4792E-04  0.6349E+02
      5.394  0.2344E+00  0.6350E+02
      5.412  0.8312E+01  0.6365E+02
      5.431  0.3388E+01  0.6371E+02
      5.449  0.8170E-02  0.6371E+02
      5.468  0.3256E-07  0.6371E+02
      5.487  0.0000E+00  0.6371E+02
      5.505  0.0000E+00  0.6371E+02
      5.524  0.0000E+00  0.6371E+02
      5.542  0.0000E+00  0.6371E+02
      5.561  0.3536E-13  0.6371E+02
      5.580  0.1198E-05  0.6371E+02
      5.598  0.5065E-01  0.6371E+02
      5.617  0.4374E+01  0.6380E+02
      5.636  0.4154E+01  0.6387E+02
      5.654  0.4862E+01  0.6396E+02
      5.673  0.4921E+00  0.6397E+02
      5.691  0.1735E-03  0.6397E+02
      5.710  0.8678E-10  0.6397E+02
      5.729  0.2753E-05  0.6397E+02
      5.747  0.3422E-01  0.6397E+02
      5.766  0.1066E+01  0.6399E+02
      5.784  0.3916E+00  0.6400E+02
      5.803  0.8140E-03  0.6400E+02
      5.822  0.2755E-08  0.6400E+02
      5.840  0.0000E+00  0.6400E+02
      5.859  0.0000E+00  0.6400E+02
      5.877  0.0000E+00  0.6400E+02
      5.896  0.0000E+00  0.6400E+02
      5.915  0.0000E+00  0.6400E+02
      5.933  0.0000E+00  0.6400E+02
      5.952  0.0000E+00  0.6400E+02
      5.970  0.0000E+00  0.6400E+02
      5.989  0.0000E+00  0.6400E+02
      6.008  0.0000E+00  0.6400E+02
      6.026  0.0000E+00  0.6400E+02
      6.045  0.0000E+00  0.6400E+02
      6.063  0.0000E+00  0.6400E+02
      6.082  0.0000E+00  0.6400E+02
      6.101  0.0000E+00  0.6400E+02
      6.119  0.0000E+00  0.6400E+02
      6.138  0.0000E+00  0.6400E+02
      6.157  0.0000E+00  0.6400E+02
      6.175  0.2139E-10  0.6400E+02
      6.194  0.5580E-04  0.6400E+02
      6.212  0.2026E+00  0.6400E+02
      6.231  0.2403E+01  0.6405E+02
      6.250  0.3795E+00  0.6406E+02
      6.268  0.2426E-03  0.6406E+02
      6.287  0.2281E-09  0.6406E+02
      6.305  0.9681E-12  0.6406E+02
      6.324  0.7693E-05  0.6406E+02
      6.343  0.8057E-01  0.6406E+02
      6.361  0.2188E+01  0.6410E+02
      6.380  0.1398E+01  0.6412E+02
      6.398  0.2223E+01  0.6417E+02
      6.417  0.3080E+01  0.6422E+02
      6.436  0.8647E+01  0.6438E+02
      6.454  0.2984E+00  0.6439E+02
      6.473  0.2627E-04  0.6439E+02
      6.491  0.3055E-11  0.6439E+02
      6.510  0.8934E-06  0.6439E+02
      6.529  0.5226E-01  0.6439E+02
      6.547  0.5966E+01  0.6450E+02
      6.566  0.5960E+01  0.6461E+02
      6.584  0.3963E+01  0.6469E+02
      6.603  0.1967E+01  0.6472E+02
      6.622  0.6390E-02  0.6472E+02
      6.640  0.3546E-07  0.6472E+02
      6.659  0.9944E-14  0.6472E+02
      6.678  0.5897E-06  0.6472E+02
      6.696  0.4171E-01  0.6472E+02
      6.715  0.5615E+01  0.6483E+02
      6.733  0.6225E+01  0.6494E+02
      6.752  0.6156E-01  0.6494E+02
      6.771  0.1701E-03  0.6494E+02
      6.789  0.3269E+00  0.6495E+02
      6.808  0.2549E+01  0.6500E+02
      6.826  0.2564E+01  0.6505E+02
      6.845  0.5306E+00  0.6506E+02
      6.864  0.7234E-01  0.6506E+02
      6.882  0.1118E+02  0.6526E+02
      6.901  0.2297E+02  0.6569E+02
      6.919  0.1609E+01  0.6572E+02
      6.938  0.8345E-03  0.6572E+02
      6.957  0.3544E-02  0.6572E+02
      6.975  0.2527E+01  0.6577E+02
      6.994  0.1277E+02  0.6601E+02
      7.012  0.8393E+01  0.6616E+02
      7.031  0.1884E+00  0.6617E+02
      7.050  0.3825E+00  0.6617E+02
      7.068  0.8961E+01  0.6634E+02
      7.087  0.4384E+01  0.6642E+02
      7.105  0.9496E+01  0.6660E+02
      7.124  0.6626E+00  0.6661E+02
      7.143  0.3410E-03  0.6661E+02
      7.161  0.1214E+01  0.6663E+02
      7.180  0.2569E+02  0.6711E+02
      7.199  0.8907E+01  0.6728E+02
      7.217  0.2043E+01  0.6732E+02
      7.236  0.5653E+01  0.6742E+02
      7.254  0.2935E+00  0.6743E+02
      7.273  0.1638E+01  0.6746E+02
      7.292  0.2303E+01  0.6750E+02
      7.310  0.3149E-01  0.6750E+02
      7.329  0.1026E-03  0.6750E+02
      7.347  0.5676E+00  0.6751E+02
      7.366  0.9395E+01  0.6769E+02
      7.385  0.1076E+02  0.6789E+02
      7.403  0.3431E+02  0.6852E+02
      7.422  0.1843E+02  0.6887E+02
      7.440  0.2406E+01  0.6891E+02
      7.459  0.3448E+01  0.6898E+02
      7.478  0.9641E+01  0.6916E+02
      7.496  0.1744E+01  0.6919E+02
      7.515  0.7398E+01  0.6933E+02
      7.533  0.6058E+01  0.6944E+02
      7.552  0.1926E+02  0.6980E+02
      7.571  0.2980E+01  0.6985E+02
      7.589  0.1853E-02  0.6985E+02
      7.608  0.5294E-04  0.6985E+02
      7.626  0.3284E+00  0.6986E+02
      7.645  0.9934E+01  0.7004E+02
      7.664  0.4715E+01  0.7013E+02
      7.682  0.8291E+01  0.7028E+02
      7.701  0.1578E+02  0.7058E+02
      7.720  0.1334E+02  0.7083E+02
      7.738  0.1022E+02  0.7102E+02
      7.757  0.6280E+01  0.7113E+02
      7.775  0.9250E+01  0.7131E+02
      7.794  0.7483E+01  0.7145E+02
      7.813  0.4179E+02  0.7222E+02
      7.831  0.1077E+02  0.7242E+02
      7.850  0.9795E+00  0.7244E+02
      7.868  0.9621E+01  0.7262E+02
      7.887  0.2313E+01  0.7266E+02
      7.906  0.1153E+02  0.7288E+02
      7.924  0.2085E+02  0.7327E+02
      7.943  0.2630E+01  0.7331E+02
      7.961  0.2199E-01  0.7332E+02
      7.980  0.4765E+01  0.7340E+02
      7.999  0.1077E+02  0.7360E+02
      8.017  0.1053E+02  0.7380E+02
      8.036  0.1380E+02  0.7406E+02
      8.054  0.2511E+02  0.7452E+02
      8.073  0.1678E+01  0.7456E+02
      8.092  0.4158E-03  0.7456E+02
      8.110  0.3359E+00  0.7456E+02
      8.129  0.2589E+02  0.7504E+02
      8.147  0.2714E+02  0.7555E+02
      8.166  0.3753E+00  0.7556E+02
      8.185  0.1311E+00  0.7556E+02
      8.203  0.8285E+01  0.7571E+02
      8.222  0.9134E+01  0.7588E+02
      8.241  0.3645E+00  0.7589E+02
      8.259  0.2561E+00  0.7589E+02
      8.278  0.9555E+01  0.7607E+02
      8.296  0.3217E+02  0.7667E+02