 vasp.6.3.0 20Jan22 (build Feb 21 2022 11:18:28) complex                         
 executed on       CrayXC_GCC_OMP date 2023.10.04  23:14:52
 running  128 mpi-ranks, with    1 threads/rank
 distrk:  each k-point on  128 cores,    1 groups
 distr:  one band on NCORE=  16 cores,    8 groups


--------------------------------------------------------------------------------------------------------


 INCAR:
   NWRITE = 2        (Medium-level output)   
   ISTART = 1        (Read existing wavefunction
   INIWAV = 1        (Random initial wavefunction
   ICORELEVEL = 1    (Print core levels)
   LPLANE = TRUE (Real space distribution
   NCORE = 16     (how many cores share the work on an individual orbital)
   PREC = Accurate  (Precision level)
   LREAL = .FALSE. (Accurate forces
   ALGO = FAST      (SCF minimisation algorithm
   ENMAX = 600.00 eV (Plane-wave cutoff) 
   NELM = 500     (Max SCF steps)   
   NELMIN = 5        (Min SCF steps)
   EDIFF = 1E-08     (SCF energy convergence
   ISPIN = 1        (Closed shell DFT)
   GGA = PS     (PBEsol exchange-correlation)
   ADDGRID = TRUE  (Increase grid
   EDIFFG = -1E-07    (Ionic convergence
   NSW = 0     (Max ionic steps
   NBLOCK = 1     (Update XDATCAR, DOSCAR every NBLOCK steps) 
   IBRION = 2     (Algorithm: 0-MD
   ISIF = 2     (Stress/relaxation: 2-Ions, 3-Shape/Ions/V, 7-Vol)
   ISYM = 2     (Symmetry: 0\=none
   2 = GGA
   3 = hybrids) 
   ISMEAR = 0     (Gaussian smearing
   SIGMA = 0.01  (Smearing value in eV
   LORBIT = 11     (PAW radii for projected DOS)
   NEDOS = 1000    (DOSCAR points)
   LMAXMIX = 4       (Mixing cut-off

 POTCAR:    PAW_PBE Si 05Jan2001                  
 POTCAR:    PAW_PBE Si 05Jan2001                  
   VRHFIN =Si: s2p2                                                                                 
   LEXCH  = PE                                                                                      
   EATOM  =   103.0669 eV,    7.5752 Ry                                                             
                                                                                                    
   TITEL  = PAW_PBE Si 05Jan2001                                                                    
   LULTRA =        F    use ultrasoft PP ?                                                          
   IUNSCR =        1    unscreen: 0-lin 1-nonlin 2-no                                               
   RPACOR =    1.500    partial core radius                                                         
   POMASS =   28.085; ZVAL   =    4.000    mass and valenz                                          
   RCORE  =    1.900    outmost cutoff radius                                                       
   RWIGS  =    2.480; RWIGS  =    1.312    wigner-seitz radius (au A)                               
   ENMAX  =  245.345; ENMIN  =  184.009 eV                                                          
   ICORE  =        2    local potential                                                             
   LCOR   =        T    correct aug charges                                                         
   LPAW   =        T    paw PP                                                                      
   EAUG   =  322.069                                                                                
   DEXC   =    0.000                                                                                
   RMAX   =    1.950    core radius for proj-oper                                                   
   RAUG   =    1.300    factor for augmentation sphere                                              
   RDEP   =    1.993    radius for radial grids                                                     
   RDEPT  =    1.837    core radius for aug-charge                                                  
                                                                                                    
   Atomic configuration                                                                             
    6 entries                                                                                       
     n  l   j            E        occ.                                                              
     1  0  0.50     -1785.8828   2.0000                                                             
     2  0  0.50      -139.4969   2.0000                                                             
     2  1  1.50       -95.5546   6.0000                                                             
     3  0  0.50       -10.8127   2.0000                                                             
     3  1  0.50        -4.0811   2.0000                                                             
     3  2  1.50        -4.0817   0.0000                                                             
   Description                                                                                      
     l       E           TYP  RCUT    TYP  RCUT                                                     
     0    -10.8127223     23  1.900                                                                 
     0     -7.6451159     23  1.900                                                                 
     1     -4.0811372     23  1.900                                                                 
     1      2.4879257     23  1.900                                                                 
     2     -4.0817478      7  1.900                                                                 
  local pseudopotential read in
  partial core-charges read in
  partial kinetic energy density read in
  atomic valenz-charges read in
  non local Contribution for L=           0  read in
    real space projection operators read in
  non local Contribution for L=           0  read in
    real space projection operators read in
  non local Contribution for L=           1  read in
    real space projection operators read in
  non local Contribution for L=           1  read in
    real space projection operators read in
    PAW grid and wavefunctions read in

   number of l-projection  operators is LMAX  =           4
   number of lm-projection operators is LMMAX =           8

 -----------------------------------------------------------------------------
|                                                                             |
|               ----> ADVICE to this user running VASP <----                  |
|                                                                             |
|     You enforced a specific xc type in the INCAR file but a different       |
|     type was found in the POTCAR file.                                      |
|     I HOPE YOU KNOW WHAT YOU ARE DOING!                                     |
|                                                                             |
 -----------------------------------------------------------------------------

  PAW_PBE Si 05Jan2001                  :
 energy of atom  1       EATOM= -103.0669
 kinetic energy error for atom=    0.0003 (will be added to EATOM!!)


 POSCAR: generated by phonopy
  positions in direct lattice
  velocities in cartesian coordinates
 exchange correlation table for  LEXCH =       14
   RHO(1)=    0.500       N(1)  =     2000
   RHO(2)=  100.500       N(2)  =     4000



--------------------------------------------------------------------------------------------------------


 ion  position               nearest neighbor table
   1  0.125  0.125  0.125-   9 2.35  10 2.35  11 2.35  13 2.35
   2  0.625  0.125  0.125-   9 2.35  10 2.35  12 2.35  14 2.35
   3  0.125  0.625  0.125-   9 2.35  11 2.35  12 2.35  15 2.35
   4  0.625  0.625  0.125-  10 2.35  11 2.35  12 2.35  16 2.35
   5  0.125  0.125  0.625-   9 2.35  13 2.35  14 2.35  15 2.35
   6  0.625  0.125  0.625-  10 2.35  13 2.35  14 2.35  16 2.35
   7  0.125  0.625  0.625-  11 2.35  13 2.35  15 2.35  16 2.35
   8  0.625  0.625  0.625-  12 2.35  14 2.35  15 2.35  16 2.35
   9  0.000  0.000  0.000-   1 2.35   2 2.35   3 2.35   5 2.35
  10  0.500  0.000  0.000-   1 2.35   2 2.35   4 2.35   6 2.35
  11  0.000  0.500  0.000-   1 2.35   3 2.35   4 2.35   7 2.35
  12  0.500  0.500  0.000-   2 2.35   3 2.35   4 2.35   8 2.35
  13  0.000  0.000  0.500-   1 2.35   5 2.35   6 2.35   7 2.35
  14  0.500  0.000  0.500-   2 2.35   5 2.35   6 2.35   8 2.35
  15  0.000  0.500  0.500-   3 2.35   5 2.35   7 2.35   8 2.35
  16  0.500  0.500  0.500-   4 2.35   6 2.35   7 2.35   8 2.35

  LATTYP: Found a face centered cubic cell.
 ALAT       =    10.8716235991
  
  Lattice vectors:
  
 A1 = (   0.0000000000,   5.4358117995,   5.4358117995)
 A2 = (   5.4358117995,   0.0000000000,   5.4358117995)
 A3 = (   5.4358117995,   5.4358117995,   0.0000000000)


Analysis of symmetry for initial positions (statically):
=====================================================================
 Subroutine PRICEL returns following result:
 
  LATTYP: Found a face centered cubic cell.
 ALAT       =     5.4358117995
  
  Lattice vectors:
  
 A1 = (   0.0000000000,   2.7179058998,   2.7179058998)
 A2 = (   2.7179058998,   0.0000000000,   2.7179058998)
 A3 = (   2.7179058998,   2.7179058998,   0.0000000000)
 
   8 primitive cells build up your supercell.
 

 Routine SETGRP: Setting up the symmetry group for a 
 face centered cubic supercell.


 Subroutine GETGRP returns: Found 48 space group operations
 (whereof 24 operations were pure point group operations)
 out of a pool of 48 trial point group operations.


The static configuration has the point symmetry T_d .
 The point group associated with its full space group is O_h .


Analysis of symmetry for dynamics (positions and initial velocities):
=====================================================================
 Subroutine PRICEL returns following result:
 
  LATTYP: Found a face centered cubic cell.
 ALAT       =     5.4358117995
  
  Lattice vectors:
  
 A1 = (   0.0000000000,   2.7179058998,   2.7179058998)
 A2 = (   2.7179058998,   0.0000000000,   2.7179058998)
 A3 = (   2.7179058998,   2.7179058998,   0.0000000000)
 
   8 primitive cells build up your supercell.
 

 Routine SETGRP: Setting up the symmetry group for a 
 face centered cubic supercell.


 Subroutine GETGRP returns: Found 48 space group operations
 (whereof 24 operations were pure point group operations)
 out of a pool of 48 trial point group operations.


The dynamic configuration has the point symmetry T_d .
 The point group associated with its full space group is O_h .


 Subroutine INISYM returns: Found 48 space group operations
 (whereof 24 operations are pure point group operations),
 and found     8 'primitive' translations


----------------------------------------------------------------------------------------

                                     Primitive cell                                     

  volume of cell :      40.1544

  direct lattice vectors                    reciprocal lattice vectors
     0.000000000  2.717905900  2.717905900    -0.183965162  0.183965162  0.183965162
     2.717905900  0.000000000  2.717905900     0.183965162 -0.183965162  0.183965162
     2.717905900  2.717905900  0.000000000     0.183965162  0.183965162 -0.183965162

  length of vectors
     3.843699385  3.843699385  3.843699385     0.318637008  0.318637008  0.318637008

  position of ions in fractional coordinates (direct lattice)
     0.250000000  0.250000000  0.250000000
     0.000000000  0.000000000  0.000000000

  ion indices of the primitive-cell ions
   primitive index   ion index
                 1           1
                 2           9

----------------------------------------------------------------------------------------



 KPOINTS: Regular k-point mesh                    

Automatic generation of k-mesh.
 Grid dimensions read from file:
 generate k-points for:    6    6    6

 Generating k-lattice:

  Cartesian coordinates                     Fractional coordinates (reciprocal lattice)
    -0.015330430  0.015330430  0.015330430     0.166666667  0.000000000 -0.000000000
     0.015330430 -0.015330430  0.015330430     0.000000000  0.166666667  0.000000000
     0.015330430  0.015330430 -0.015330430    -0.000000000 -0.000000000  0.166666667

  Length of vectors
     0.026553084  0.026553084  0.026553084

  Shift w.r.t. Gamma in fractional coordinates (k-lattice)
     0.000000000  0.000000000  0.000000000

 
 Subroutine IBZKPT returns following result:
 ===========================================
 
 Found     16 irreducible k-points:
 
 Following reciprocal coordinates:
            Coordinates               Weight
  0.000000  0.000000  0.000000      1.000000
  0.166667  0.000000  0.000000      8.000000
  0.333333  0.000000  0.000000      8.000000
  0.500000  0.000000  0.000000      4.000000
  0.166667  0.166667  0.000000      6.000000
  0.333333  0.166667  0.000000     24.000000
  0.500000  0.166667  0.000000     24.000000
 -0.333333  0.166667  0.000000     24.000000
 -0.166667  0.166667  0.000000     12.000000
  0.333333  0.333333  0.000000      6.000000
  0.500000  0.333333  0.000000     24.000000
 -0.333333  0.333333  0.000000     12.000000
  0.500000  0.500000  0.000000      3.000000
  0.500000  0.333333  0.166667     24.000000
 -0.333333  0.333333  0.166667     24.000000
 -0.333333  0.500000  0.166667     12.000000
 
 Following cartesian coordinates:
            Coordinates               Weight
  0.000000  0.000000  0.000000      1.000000
 -0.015330  0.015330  0.015330      8.000000
 -0.030661  0.030661  0.030661      8.000000
 -0.045991  0.045991  0.045991      4.000000
  0.000000  0.000000  0.030661      6.000000
 -0.015330  0.015330  0.045991     24.000000
 -0.030661  0.030661  0.061322     24.000000
  0.045991 -0.045991 -0.015330     24.000000
  0.030661 -0.030661  0.000000     12.000000
  0.000000  0.000000  0.061322      6.000000
 -0.015330  0.015330  0.076652     24.000000
  0.061322 -0.061322  0.000000     12.000000
  0.000000  0.000000  0.091983      3.000000
  0.000000  0.030661  0.061322     24.000000
  0.076652 -0.045991 -0.015330     24.000000
  0.091983 -0.061322  0.000000     12.000000
 


--------------------------------------------------------------------------------------------------------




 Dimension of arrays:
   k-points           NKPTS =     16   k-points in BZ     NKDIM =     16   number of bands    NBANDS=     48
   number of dos      NEDOS =   1000   number of ions     NIONS =     16
   non local maximal  LDIM  =      4   non local SUM 2l+1 LMDIM =      8
   total plane-waves  NPLWV = 262144
   max r-space proj   IRMAX =      1   max aug-charges    IRDMAX= 218451
   dimension x,y,z NGX =    64 NGY =   64 NGZ =   64
   dimension x,y,z NGXF=   128 NGYF=  128 NGZF=  128
   support grid    NGXF=   256 NGYF=  256 NGZF=  256
   ions per type =              16
   NGX,Y,Z   is equivalent  to a cutoff of  13.84, 13.84, 13.84 a.u.
   NGXF,Y,Z  is equivalent  to a cutoff of  27.68, 27.68, 27.68 a.u.

 SYSTEM =  unknown system                          
 POSCAR =  generated by phonopy                    

 Startparameter for this run:
   NWRITE =      2    write-flag & timer
   PREC   = accura    normal or accurate (medium, high low for compatibility)
   ISTART =      0    job   : 0-new  1-cont  2-samecut
   ICHARG =      2    charge: 1-file 2-atom 10-const
   ISPIN  =      1    spin polarized calculation?
   LNONCOLLINEAR =      F non collinear calculations
   LSORBIT =      F    spin-orbit coupling
   INIWAV =      1    electr: 0-lowe 1-rand  2-diag
   LASPH  =      F    aspherical Exc in radial PAW
 Electronic Relaxation 1
   ENCUT  =  600.0 eV  44.10 Ry    6.64 a.u.  15.35 15.35 15.35*2*pi/ulx,y,z
   ENINI  =  600.0     initial cutoff
   ENAUG  =  322.1 eV  augmentation charge cutoff
   NELM   =    500;   NELMIN=  5; NELMDL=  0     # of ELM steps 
   EDIFF  = 0.1E-07   stopping-criterion for ELM
   LREAL  =      F    real-space projection
   NLSPLINE    = F    spline interpolate recip. space projectors
   LCOMPAT=      F    compatible to vasp.4.4
   GGA_COMPAT  = T    GGA compatible to vasp.4.4-vasp.4.6
   LMAXPAW     = -100 max onsite density
   LMAXMIX     =    4 max onsite mixed and CHGCAR
   VOSKOWN=      0    Vosko Wilk Nusair interpolation
   ROPT   =    0.00000
 Ionic relaxation
   EDIFFG = -.1E-06   stopping-criterion for IOM
   NSW    =      0    number of steps for IOM
   NBLOCK =      1;   KBLOCK =      1    inner block; outer block 
   IBRION =     -1    ionic relax: 0-MD 1-quasi-New 2-CG
   NFREE  =      1    steps in history (QN), initial steepest desc. (CG)
   ISIF   =      2    stress and relaxation
   IWAVPR =     10    prediction:  0-non 1-charg 2-wave 3-comb
   ISYM   =      2    0-nonsym 1-usesym 2-fastsym
   LCORR  =      T    Harris-Foulkes like correction to forces

   POTIM  = 0.5000    time-step for ionic-motion
   TEIN   =    0.0    initial temperature
   TEBEG  =    0.0;   TEEND  =   0.0 temperature during run
   SMASS  =  -3.00    Nose mass-parameter (am)
   estimated Nose-frequenzy (Omega)   =  0.10E-29 period in steps = 0.13E+47 mass=  -0.135E-26a.u.
   SCALEE = 1.0000    scale energy and forces
   NPACO  =    256;   APACO  = 10.0  distance and # of slots for P.C.
   PSTRESS=    0.0 pullay stress

  Mass of Ions in am
   POMASS =  28.09
  Ionic Valenz
   ZVAL   =   4.00
  Atomic Wigner-Seitz radii
   RWIGS  =  -1.00
  virtual crystal weights 
   VCA    =   1.00
   NELECT =      64.0000    total number of electrons
   NUPDOWN=      -1.0000    fix difference up-down

 DOS related values:
   EMIN   =  10.00;   EMAX   =-10.00  energy-range for DOS
   EFERMI =   0.00
   ISMEAR =     0;   SIGMA  =   0.01  broadening in eV -4-tet -1-fermi 0-gaus

 Electronic relaxation 2 (details)
   IALGO  =     68    algorithm
   LDIAG  =      T    sub-space diagonalisation (order eigenvalues)
   LSUBROT=      F    optimize rotation matrix (better conditioning)
   TURBO    =      0    0=normal 1=particle mesh
   IRESTART =      0    0=no restart 2=restart with 2 vectors
   NREBOOT  =      0    no. of reboots
   NMIN     =      0    reboot dimension
   EREF     =   0.00    reference energy to select bands
   IMIX   =      4    mixing-type and parameters
     AMIX     =   0.40;   BMIX     =  1.00
     AMIX_MAG =   1.60;   BMIX_MAG =  1.00
     AMIN     =   0.10
     WC   =   100.;   INIMIX=   1;  MIXPRE=   1;  MAXMIX= -45

 Intra band minimization:
   WEIMIN = 0.0000     energy-eigenvalue tresh-hold
   EBREAK =  0.52E-10  absolut break condition
   DEPER  =   0.30     relativ break condition  

   TIME   =   0.40     timestep for ELM

  volume/ion in A,a.u.               =      20.08       135.49
  Fermi-wavevector in a.u.,A,eV,Ry     =   0.956152  1.806866 12.438817  0.914227
  Thomas-Fermi vector in A             =   2.085055

 Write flags
   LWAVE        =      T    write WAVECAR
   LDOWNSAMPLE  =      F    k-point downsampling of WAVECAR
   LCHARG       =      T    write CHGCAR
   LVTOT        =      F    write LOCPOT, total local potential
   LVHAR        =      F    write LOCPOT, Hartree potential only
   LELF         =      F    write electronic localiz. function (ELF)
   LORBIT       =     11    0 simple, 1 ext, 2 COOP (PROOUT), +10 PAW based schemes


 Dipole corrections
   LMONO  =      F    monopole corrections only (constant potential shift)
   LDIPOL =      F    correct potential (dipole corrections)
   IDIPOL =      0    1-x, 2-y, 3-z, 4-all directions 
   EPSILON=  1.0000000 bulk dielectric constant

 Core level calculations are selected ICORELEVEL =  1
 Exchange correlation treatment:
   GGA     =    PS    GGA type
   LEXCH   =    14    internal setting for exchange type
   LIBXC   =     F    Libxc                    
   VOSKOWN =     0    Vosko Wilk Nusair interpolation
   LHFCALC =     F    Hartree Fock is set to
   LHFONE  =     F    Hartree Fock one center treatment
   AEXX    =    0.0000 exact exchange contribution

 Linear response parameters
   LEPSILON=     F    determine dielectric tensor
   LRPA    =     F    only Hartree local field effects (RPA)
   LNABLA  =     F    use nabla operator in PAW spheres
   LVEL    =     F    velocity operator in full k-point grid
   CSHIFT  =0.1000    complex shift for real part using Kramers Kronig
   OMEGAMAX=  -1.0    maximum frequency
   DEG_THRESHOLD= 0.2000000E-02 threshold for treating states as degnerate
   RTIME   =   -0.100 relaxation time in fs
  (WPLASMAI=    0.000 imaginary part of plasma frequency in eV, 0.658/RTIME)
   DFIELD  = 0.0000000 0.0000000 0.0000000 field for delta impulse in time

  Optional k-point grid parameters
   LKPOINTS_OPT  =     F    use optional k-point grid
   KPOINTS_OPT_MODE=     1    mode for optional k-point grid

 Orbital magnetization related:
   ORBITALMAG=     F  switch on orbital magnetization
   LCHIMAG   =     F  perturbation theory with respect to B field
   DQ        =  0.001000  dq finite difference perturbation B field
   LLRAUG    =     F  two centre corrections for induced B field



--------------------------------------------------------------------------------------------------------


 Static calculation
 charge density and potential will be updated during run
 non-spin polarized calculation
 RMM-DIIS sequential band-by-band and
  variant of blocked Davidson during initial phase
 perform sub-space diagonalisation
    before iterative eigenvector-optimisation
 modified Broyden-mixing scheme, WC =      100.0
 initial mixing is a Kerker type mixing with AMIX =  0.4000 and BMIX =      1.0000
 Hartree-type preconditioning will be used
 using additional bands           16
 reciprocal scheme for non local part
 use partial core corrections
 calculate Harris-corrections to forces   (improved forces if not selfconsistent)
 use gradient corrections 
 use of overlap-Matrix (Vanderbilt PP)
 Gauss-broadening in eV      SIGMA  =   0.01


--------------------------------------------------------------------------------------------------------


  energy-cutoff  :      600.00
  volume of cell :      321.24
      direct lattice vectors                 reciprocal lattice vectors
     0.000000000  5.435811800  5.435811800    -0.091982581  0.091982581  0.091982581
     5.435811800  0.000000000  5.435811800     0.091982581 -0.091982581  0.091982581
     5.435811800  5.435811800  0.000000000     0.091982581  0.091982581 -0.091982581

  length of vectors
     7.687398769  7.687398769  7.687398769     0.159318504  0.159318504  0.159318504



 k-points in units of 2pi/SCALE and weight: Regular k-point mesh                    
   0.00000000  0.00000000  0.00000000       0.005
  -0.01533043  0.01533043  0.01533043       0.037
  -0.03066086  0.03066086  0.03066086       0.037
  -0.04599129  0.04599129  0.04599129       0.019
   0.00000000  0.00000000  0.03066086       0.028
  -0.01533043  0.01533043  0.04599129       0.111
  -0.03066086  0.03066086  0.06132172       0.111
   0.04599129 -0.04599129 -0.01533043       0.111
   0.03066086 -0.03066086  0.00000000       0.056
   0.00000000  0.00000000  0.06132172       0.028
  -0.01533043  0.01533043  0.07665215       0.111
   0.06132172 -0.06132172  0.00000000       0.056
   0.00000000  0.00000000  0.09198258       0.014
   0.00000000  0.03066086  0.06132172       0.111
   0.07665215 -0.04599129 -0.01533043       0.111
   0.09198258 -0.06132172  0.00000000       0.056

 k-points in reciprocal lattice and weights: Regular k-point mesh                    
   0.00000000  0.00000000  0.00000000       0.005
   0.16666667  0.00000000  0.00000000       0.037
   0.33333333  0.00000000  0.00000000       0.037
   0.50000000  0.00000000  0.00000000       0.019
   0.16666667  0.16666667  0.00000000       0.028
   0.33333333  0.16666667  0.00000000       0.111
   0.50000000  0.16666667  0.00000000       0.111
  -0.33333333  0.16666667  0.00000000       0.111
  -0.16666667  0.16666667  0.00000000       0.056
   0.33333333  0.33333333  0.00000000       0.028
   0.50000000  0.33333333  0.00000000       0.111
  -0.33333333  0.33333333  0.00000000       0.056
   0.50000000  0.50000000  0.00000000       0.014
   0.50000000  0.33333333  0.16666667       0.111
  -0.33333333  0.33333333  0.16666667       0.111
  -0.33333333  0.50000000  0.16666667       0.056

 position of ions in fractional coordinates (direct lattice) 
   0.12500000  0.12500000  0.12500000
   0.62500000  0.12500000  0.12500000
   0.12500000  0.62500000  0.12500000
   0.62500000  0.62500000  0.12500000
   0.12500000  0.12500000  0.62500000
   0.62500000  0.12500000  0.62500000
   0.12500000  0.62500000  0.62500000
   0.62500000  0.62500000  0.62500000
   0.00000000  0.00000000  0.00000000
   0.50000000  0.00000000  0.00000000
   0.00000000  0.50000000  0.00000000
   0.50000000  0.50000000  0.00000000
   0.00000000  0.00000000  0.50000000
   0.50000000  0.00000000  0.50000000
   0.00000000  0.50000000  0.50000000
   0.50000000  0.50000000  0.50000000

 position of ions in cartesian coordinates  (Angst):
   1.35895295  1.35895295  1.35895295
   1.35895295  4.07685885  4.07685885
   4.07685885  1.35895295  4.07685885
   4.07685885  4.07685885  6.79476475
   4.07685885  4.07685885  1.35895295
   4.07685885  6.79476475  4.07685885
   6.79476475  4.07685885  4.07685885
   6.79476475  6.79476475  6.79476475
   0.00000000  0.00000000  0.00000000
   0.00000000  2.71790590  2.71790590
   2.71790590  0.00000000  2.71790590
   2.71790590  2.71790590  5.43581180
   2.71790590  2.71790590  0.00000000
   2.71790590  5.43581180  2.71790590
   5.43581180  2.71790590  2.71790590
   5.43581180  5.43581180  5.43581180



--------------------------------------------------------------------------------------------------------


 k-point   1 :   0.0000 0.0000 0.0000  plane waves:   10777
 k-point   2 :   0.1667 0.0000 0.0000  plane waves:   10765
 k-point   3 :   0.3333 0.0000 0.0000  plane waves:   10699
 k-point   4 :   0.5000 0.0000 0.0000  plane waves:   10730
 k-point   5 :   0.1667 0.1667 0.0000  plane waves:   10742
 k-point   6 :   0.3333 0.1667 0.0000  plane waves:   10709
 k-point   7 :   0.5000 0.1667 0.0000  plane waves:   10712
 k-point   8 :  -0.3333 0.1667 0.0000  plane waves:   10727
 k-point   9 :  -0.1667 0.1667 0.0000  plane waves:   10739
 k-point  10 :   0.3333 0.3333 0.0000  plane waves:   10742
 k-point  11 :   0.5000 0.3333 0.0000  plane waves:   10717
 k-point  12 :  -0.3333 0.3333 0.0000  plane waves:   10692
 k-point  13 :   0.5000 0.5000 0.0000  plane waves:   10718
 k-point  14 :   0.5000 0.3333 0.1667  plane waves:   10739
 k-point  15 :  -0.3333 0.3333 0.1667  plane waves:   10706
 k-point  16 :  -0.3333 0.5000 0.1667  plane waves:   10712

 maximum and minimum number of plane-waves per node :       695      655

 maximum number of plane-waves:     10777
 maximum index in each direction: 
   IXMAX=   15   IYMAX=   15   IZMAX=   15
   IXMIN=  -15   IYMIN=  -15   IZMIN=  -15


 parallel 3D FFT for wavefunctions:
    minimum data exchange during FFTs selected (reduces bandwidth)
 parallel 3D FFT for charge:
    minimum data exchange during FFTs selected (reduces bandwidth)


 total amount of memory used by VASP MPI-rank0    36369. kBytes
=======================================================================

   base      :      30000. kBytes
   nonl-proj :        890. kBytes
   fftplans  :       2941. kBytes
   grid      :       1454. kBytes
   one-center:          3. kBytes
   wavefun   :       1081. kBytes

     INWAV:  cpu time      0.0002: real time      0.0003
 Broyden mixing: mesh for mixing (old mesh)
   NGX = 31   NGY = 31   NGZ = 31
  (NGX  =128   NGY  =128   NGZ  =128)
  gives a total of  29791 points

 initial charge density was supplied:
 charge density of overlapping atoms calculated
 number of electron      64.0000000 magnetization 
 keeping initial charge density in first step


--------------------------------------------------------------------------------------------------------


 Maximum index for augmentation-charges         3931 (set IRDMAX)


--------------------------------------------------------------------------------------------------------


 First call to EWALD:  gamma=   0.259
 Maximum number of real-space cells 3x 3x 3
 Maximum number of reciprocal cells 3x 3x 3

    FEWALD:  cpu time      0.0045: real time      0.0049


--------------------------------------- Iteration      1(   1)  ---------------------------------------


    POTLOK:  cpu time      0.0329: real time      0.0341
    SETDIJ:  cpu time      0.0658: real time      0.0659
     EDDAV:  cpu time      0.6611: real time      0.8313
       DOS:  cpu time      0.0040: real time      0.0042
    --------------------------------------------
      LOOP:  cpu time      0.7638: real time      0.9355

 eigenvalue-minimisations  :  1536
 total energy-change (2. order) : 0.1545921E+03  (-0.2617462E+04)
 number of electron      64.0000000 magnetization 
 augmentation part       64.0000000 magnetization 

 Free energy of the ion-electron system (eV)
  ---------------------------------------------------
  alpha Z        PSCENC =        26.82694619
  Ewald energy   TEWEN  =     -1826.55336167
  -Hartree energ DENC   =       -88.39437999
  -exchange      EXHF   =         0.00000000
  -V(xc)+E(xc)   XCENC  =      -139.73341060
  PAW double counting   =      1399.65656354    -1123.04461034
  entropy T*S    EENTRO =        -0.00054793
  eigenvalues    EBANDS =       264.62296490
  atomic energy  EATOM  =      1641.21197842
  Solvation  Ediel_sol  =         0.00000000
  ---------------------------------------------------
  free energy    TOTEN  =       154.59214253 eV

  energy without entropy =      154.59269046  energy(sigma->0) =      154.59241649


--------------------------------------------------------------------------------------------------------




--------------------------------------- Iteration      1(   2)  ---------------------------------------


     EDDAV:  cpu time      0.6314: real time      0.6464
       DOS:  cpu time      0.0009: real time      0.0009
    --------------------------------------------
      LOOP:  cpu time      0.6323: real time      0.6473

 eigenvalue-minimisations  :  1872
 total energy-change (2. order) :-0.2339930E+03  (-0.2153100E+03)
 number of electron      64.0000000 magnetization 
 augmentation part       64.0000000 magnetization 

 Free energy of the ion-electron system (eV)
  ---------------------------------------------------
  alpha Z        PSCENC =        26.82694619
  Ewald energy   TEWEN  =     -1826.55336167
  -Hartree energ DENC   =       -88.39437999
  -exchange      EXHF   =         0.00000000
  -V(xc)+E(xc)   XCENC  =      -139.73341060
  PAW double counting   =      1399.65656354    -1123.04461034
  entropy T*S    EENTRO =        -0.00000000
  eigenvalues    EBANDS =        30.62936861
  atomic energy  EATOM  =      1641.21197842
  Solvation  Ediel_sol  =         0.00000000
  ---------------------------------------------------
  free energy    TOTEN  =       -79.40090583 eV

  energy without entropy =      -79.40090583  energy(sigma->0) =      -79.40090583


--------------------------------------------------------------------------------------------------------




--------------------------------------- Iteration      1(   3)  ---------------------------------------


     EDDAV:  cpu time      0.6833: real time      0.7000
       DOS:  cpu time      0.0005: real time      0.0005
    --------------------------------------------
      LOOP:  cpu time      0.6838: real time      0.7005

 eigenvalue-minimisations  :  1984
 total energy-change (2. order) :-0.1400606E+02  (-0.1373818E+02)
 number of electron      64.0000000 magnetization 
 augmentation part       64.0000000 magnetization 

 Free energy of the ion-electron system (eV)
  ---------------------------------------------------
  alpha Z        PSCENC =        26.82694619
  Ewald energy   TEWEN  =     -1826.55336167
  -Hartree energ DENC   =       -88.39437999
  -exchange      EXHF   =         0.00000000
  -V(xc)+E(xc)   XCENC  =      -139.73341060
  PAW double counting   =      1399.65656354    -1123.04461034
  entropy T*S    EENTRO =        -0.00000000
  eigenvalues    EBANDS =        16.62330808
  atomic energy  EATOM  =      1641.21197842
  Solvation  Ediel_sol  =         0.00000000
  ---------------------------------------------------
  free energy    TOTEN  =       -93.40696636 eV

  energy without entropy =      -93.40696636  energy(sigma->0) =      -93.40696636


--------------------------------------------------------------------------------------------------------




--------------------------------------- Iteration      1(   4)  ---------------------------------------


     EDDAV:  cpu time      0.6364: real time      0.6531
       DOS:  cpu time      0.0026: real time      0.0026
    --------------------------------------------
      LOOP:  cpu time      0.6389: real time      0.6556

 eigenvalue-minimisations  :  1920
 total energy-change (2. order) :-0.3029822E+00  (-0.3014228E+00)
 number of electron      64.0000000 magnetization 
 augmentation part       64.0000000 magnetization 

 Free energy of the ion-electron system (eV)
  ---------------------------------------------------
  alpha Z        PSCENC =        26.82694619
  Ewald energy   TEWEN  =     -1826.55336167
  -Hartree energ DENC   =       -88.39437999
  -exchange      EXHF   =         0.00000000
  -V(xc)+E(xc)   XCENC  =      -139.73341060
  PAW double counting   =      1399.65656354    -1123.04461034
  entropy T*S    EENTRO =        -0.00000000
  eigenvalues    EBANDS =        16.32032590
  atomic energy  EATOM  =      1641.21197842
  Solvation  Ediel_sol  =         0.00000000
  ---------------------------------------------------
  free energy    TOTEN  =       -93.70994854 eV

  energy without entropy =      -93.70994854  energy(sigma->0) =      -93.70994854


--------------------------------------------------------------------------------------------------------




--------------------------------------- Iteration      1(   5)  ---------------------------------------


     EDDAV:  cpu time      0.6375: real time      0.6461
       DOS:  cpu time      0.0005: real time      0.0005
    CHARGE:  cpu time      0.2858: real time      0.2863
    MIXING:  cpu time      0.0074: real time      0.0077
    --------------------------------------------
      LOOP:  cpu time      0.9312: real time      0.9405

 eigenvalue-minimisations  :  1928
 total energy-change (2. order) :-0.7520744E-02  (-0.7513827E-02)
 number of electron      64.0000000 magnetization 
 augmentation part       -3.7419910 magnetization 

 Broyden mixing:
  rms(total) = 0.14014E+01    rms(broyden)= 0.14014E+01
  rms(prec ) = 0.17993E+01
  weight for this iteration     100.00

 Free energy of the ion-electron system (eV)
  ---------------------------------------------------
  alpha Z        PSCENC =        26.82694619
  Ewald energy   TEWEN  =     -1826.55336167
  -Hartree energ DENC   =       -88.39437999
  -exchange      EXHF   =         0.00000000
  -V(xc)+E(xc)   XCENC  =      -139.73341060
  PAW double counting   =      1399.65656354    -1123.04461034
  entropy T*S    EENTRO =        -0.00000000
  eigenvalues    EBANDS =        16.31280516
  atomic energy  EATOM  =      1641.21197842
  Solvation  Ediel_sol  =         0.00000000
  ---------------------------------------------------
  free energy    TOTEN  =       -93.71746928 eV

  energy without entropy =      -93.71746928  energy(sigma->0) =      -93.71746928


--------------------------------------------------------------------------------------------------------




--------------------------------------- Iteration      1(   6)  ---------------------------------------


    POTLOK:  cpu time      0.0264: real time      0.0420
    SETDIJ:  cpu time      0.0649: real time      0.0649
    EDDIAG:  cpu time      0.1879: real time      0.1881
  RMM-DIIS:  cpu time      0.2967: real time      0.2972
    ORTHCH:  cpu time      0.0137: real time      0.0137
       DOS:  cpu time      0.0006: real time      0.0006
    CHARGE:  cpu time      0.2693: real time      0.2693
    MIXING:  cpu time      0.0025: real time      0.0027
    --------------------------------------------
      LOOP:  cpu time      0.8618: real time      0.8784

 eigenvalue-minimisations  :  1547
 total energy-change (2. order) : 0.1224568E+01  (-0.5440497E-01)
 number of electron      64.0000000 magnetization 
 augmentation part       -3.7014675 magnetization 

 Broyden mixing:
  rms(total) = 0.84162E+00    rms(broyden)= 0.84162E+00
  rms(prec ) = 0.10685E+01
  weight for this iteration     100.00

 eigenvalues of (default mixing * dielectric matrix)
  average eigenvalue GAMMA=   2.4979
  2.4979

 Free energy of the ion-electron system (eV)
  ---------------------------------------------------
  alpha Z        PSCENC =        26.82694619
  Ewald energy   TEWEN  =     -1826.55336167
  -Hartree energ DENC   =       -99.84910324
  -exchange      EXHF   =         0.00000000
  -V(xc)+E(xc)   XCENC  =      -137.92682108
  PAW double counting   =      3073.59305612    -2797.78515837
  entropy T*S    EENTRO =        -0.00000000
  eigenvalues    EBANDS =        27.98956235
  atomic energy  EATOM  =      1641.21197842
  Solvation  Ediel_sol  =         0.00000000
  ---------------------------------------------------
  free energy    TOTEN  =       -92.49290129 eV

  energy without entropy =      -92.49290129  energy(sigma->0) =      -92.49290129


--------------------------------------------------------------------------------------------------------




--------------------------------------- Iteration      1(   7)  ---------------------------------------


    POTLOK:  cpu time      0.0291: real time      0.0426
    SETDIJ:  cpu time      0.0632: real time      0.0635
    EDDIAG:  cpu time      0.1783: real time      0.1783
  RMM-DIIS:  cpu time      0.3104: real time      0.3104
    ORTHCH:  cpu time      0.0136: real time      0.0136
       DOS:  cpu time      0.0005: real time      0.0005
    CHARGE:  cpu time      0.2692: real time      0.2692
    MIXING:  cpu time      0.0008: real time      0.0008
    --------------------------------------------
      LOOP:  cpu time      0.8650: real time      0.8788

 eigenvalue-minimisations  :  1649
 total energy-change (2. order) : 0.5612701E+00  (-0.1287521E+00)
 number of electron      64.0000000 magnetization 
 augmentation part       -3.6478567 magnetization 

 Broyden mixing:
  rms(total) = 0.46226E-01    rms(broyden)= 0.46226E-01
  rms(prec ) = 0.73531E-01
  weight for this iteration     100.00

 eigenvalues of (default mixing * dielectric matrix)
  average eigenvalue GAMMA=   2.2801
  2.2801  2.2801

 Free energy of the ion-electron system (eV)
  ---------------------------------------------------
  alpha Z        PSCENC =        26.82694619
  Ewald energy   TEWEN  =     -1826.55336167
  -Hartree energ DENC   =      -118.35084260
  -exchange      EXHF   =         0.00000000
  -V(xc)+E(xc)   XCENC  =      -134.85974781
  PAW double counting   =      6992.07291242    -6717.35025635
  entropy T*S    EENTRO =        -0.00000000
  eigenvalues    EBANDS =        45.07074024
  atomic energy  EATOM  =      1641.21197842
  Solvation  Ediel_sol  =         0.00000000
  ---------------------------------------------------
  free energy    TOTEN  =       -91.93163115 eV

  energy without entropy =      -91.93163115  energy(sigma->0) =      -91.93163115


--------------------------------------------------------------------------------------------------------




--------------------------------------- Iteration      1(   8)  ---------------------------------------


    POTLOK:  cpu time      0.0269: real time      0.0430
    SETDIJ:  cpu time      0.0619: real time      0.0619
    EDDIAG:  cpu time      0.1777: real time      0.1780
  RMM-DIIS:  cpu time      0.3244: real time      0.3245
    ORTHCH:  cpu time      0.0137: real time      0.0137
       DOS:  cpu time      0.0005: real time      0.0005
    CHARGE:  cpu time      0.2695: real time      0.2695
    MIXING:  cpu time      0.0007: real time      0.0007
    --------------------------------------------
      LOOP:  cpu time      0.8753: real time      0.8917

 eigenvalue-minimisations  :  1727
 total energy-change (2. order) :-0.1012329E-01  (-0.1194108E-01)
 number of electron      64.0000000 magnetization 
 augmentation part       -3.6616716 magnetization 

 Broyden mixing:
  rms(total) = 0.24868E-01    rms(broyden)= 0.24868E-01
  rms(prec ) = 0.30965E-01
  weight for this iteration     100.00

 eigenvalues of (default mixing * dielectric matrix)
  average eigenvalue GAMMA=   2.3928
  2.6087  2.2849  2.2849

 Free energy of the ion-electron system (eV)
  ---------------------------------------------------
  alpha Z        PSCENC =        26.82694619
  Ewald energy   TEWEN  =     -1826.55336167
  -Hartree energ DENC   =      -116.79337249
  -exchange      EXHF   =         0.00000000
  -V(xc)+E(xc)   XCENC  =      -134.96184217
  PAW double counting   =      6948.39408347    -6673.46241540
  entropy T*S    EENTRO =        -0.00000000
  eigenvalues    EBANDS =        43.39622920
  atomic energy  EATOM  =      1641.21197842
  Solvation  Ediel_sol  =         0.00000000
  ---------------------------------------------------
  free energy    TOTEN  =       -91.94175444 eV

  energy without entropy =      -91.94175444  energy(sigma->0) =      -91.94175444


--------------------------------------------------------------------------------------------------------




--------------------------------------- Iteration      1(   9)  ---------------------------------------


    POTLOK:  cpu time      0.0421: real time      0.0423
    SETDIJ:  cpu time      0.0627: real time      0.0627
    EDDIAG:  cpu time      0.1776: real time      0.1776
  RMM-DIIS:  cpu time      0.3379: real time      0.3382
    ORTHCH:  cpu time      0.0136: real time      0.0136
       DOS:  cpu time      0.0005: real time      0.0005
    CHARGE:  cpu time      0.2686: real time      0.2686
    MIXING:  cpu time      0.0010: real time      0.0010
    --------------------------------------------
      LOOP:  cpu time      0.9040: real time      0.9044

 eigenvalue-minimisations  :  1852
 total energy-change (2. order) :-0.3395984E-02  (-0.3501490E-02)
 number of electron      64.0000000 magnetization 
 augmentation part       -3.6595360 magnetization 

 Broyden mixing:
  rms(total) = 0.27075E-01    rms(broyden)= 0.27075E-01
  rms(prec ) = 0.32435E-01
  weight for this iteration     100.00

 eigenvalues of (default mixing * dielectric matrix)
  average eigenvalue GAMMA=   1.8925
  2.6091  2.4232  2.4232  0.1145

 Free energy of the ion-electron system (eV)
  ---------------------------------------------------
  alpha Z        PSCENC =        26.82694619
  Ewald energy   TEWEN  =     -1826.55336167
  -Hartree energ DENC   =      -117.46826250
  -exchange      EXHF   =         0.00000000
  -V(xc)+E(xc)   XCENC  =      -134.87025256
  PAW double counting   =      7024.25299361    -6749.37145015
  entropy T*S    EENTRO =        -0.00000000
  eigenvalues    EBANDS =        44.02625823
  atomic energy  EATOM  =      1641.21197842
  Solvation  Ediel_sol  =         0.00000000
  ---------------------------------------------------
  free energy    TOTEN  =       -91.94515043 eV

  energy without entropy =      -91.94515043  energy(sigma->0) =      -91.94515043


--------------------------------------------------------------------------------------------------------




--------------------------------------- Iteration      1(  10)  ---------------------------------------


    POTLOK:  cpu time      0.0263: real time      0.0429
    SETDIJ:  cpu time      0.0640: real time      0.0641
    EDDIAG:  cpu time      0.1777: real time      0.1777
  RMM-DIIS:  cpu time      0.3465: real time      0.3468
    ORTHCH:  cpu time      0.0136: real time      0.0136
       DOS:  cpu time      0.0005: real time      0.0005
    CHARGE:  cpu time      0.2692: real time      0.2693
    MIXING:  cpu time      0.0009: real time      0.0009
    --------------------------------------------
      LOOP:  cpu time      0.8989: real time      0.9157

 eigenvalue-minimisations  :  1862
 total energy-change (2. order) :-0.5414631E-03  (-0.5893074E-03)
 number of electron      64.0000000 magnetization 
 augmentation part       -3.6615545 magnetization 

 Broyden mixing:
  rms(total) = 0.27934E-01    rms(broyden)= 0.27934E-01
  rms(prec ) = 0.31682E-01
  weight for this iteration     100.00

 eigenvalues of (default mixing * dielectric matrix)
  average eigenvalue GAMMA=   2.3129
  4.5444  2.6941  1.8588  1.8588  0.6086

 Free energy of the ion-electron system (eV)
  ---------------------------------------------------
  alpha Z        PSCENC =        26.82694619
  Ewald energy   TEWEN  =     -1826.55336167
  -Hartree energ DENC   =      -117.40380914
  -exchange      EXHF   =         0.00000000
  -V(xc)+E(xc)   XCENC  =      -134.87771234
  PAW double counting   =      7005.48490798    -6730.59916551
  entropy T*S    EENTRO =        -0.00000000
  eigenvalues    EBANDS =        43.96452417
  atomic energy  EATOM  =      1641.21197842
  Solvation  Ediel_sol  =         0.00000000
  ---------------------------------------------------
  free energy    TOTEN  =       -91.94569189 eV

  energy without entropy =      -91.94569189  energy(sigma->0) =      -91.94569189


--------------------------------------------------------------------------------------------------------




--------------------------------------- Iteration      1(  11)  ---------------------------------------


    POTLOK:  cpu time      0.0418: real time      0.0420
    SETDIJ:  cpu time      0.0652: real time      0.0652
    EDDIAG:  cpu time      0.1778: real time      0.1778
  RMM-DIIS:  cpu time      0.3302: real time      0.3305
    ORTHCH:  cpu time      0.0137: real time      0.0137
       DOS:  cpu time      0.0005: real time      0.0005
    CHARGE:  cpu time      0.2695: real time      0.2695
    MIXING:  cpu time      0.0009: real time      0.0009
    --------------------------------------------
      LOOP:  cpu time      0.8997: real time      0.9001

 eigenvalue-minimisations  :  1772
 total energy-change (2. order) : 0.8817007E-03  (-0.2096928E-03)
 number of electron      64.0000000 magnetization 
 augmentation part       -3.6654151 magnetization 

 Broyden mixing:
  rms(total) = 0.12347E+00    rms(broyden)= 0.12347E+00
  rms(prec ) = 0.12643E+00
  weight for this iteration     100.00

 eigenvalues of (default mixing * dielectric matrix)
  average eigenvalue GAMMA=   2.1185
  5.2580  2.5584  2.3393  1.2338  0.6607  0.6607

 Free energy of the ion-electron system (eV)
  ---------------------------------------------------
  alpha Z        PSCENC =        26.82694619
  Ewald energy   TEWEN  =     -1826.55336167
  -Hartree energ DENC   =      -116.86146118
  -exchange      EXHF   =         0.00000000
  -V(xc)+E(xc)   XCENC  =      -134.90852651
  PAW double counting   =      7192.83704606    -6917.88029141
  entropy T*S    EENTRO =        -0.00000000
  eigenvalues    EBANDS =        43.38285992
  atomic energy  EATOM  =      1641.21197842
  Solvation  Ediel_sol  =         0.00000000
  ---------------------------------------------------
  free energy    TOTEN  =       -91.94481019 eV

  energy without entropy =      -91.94481019  energy(sigma->0) =      -91.94481019


--------------------------------------------------------------------------------------------------------




--------------------------------------- Iteration      1(  12)  ---------------------------------------


    POTLOK:  cpu time      0.0266: real time      0.0443
    SETDIJ:  cpu time      0.0658: real time      0.0658
    EDDIAG:  cpu time      0.1771: real time      0.1772
  RMM-DIIS:  cpu time      0.3260: real time      0.3260
    ORTHCH:  cpu time      0.0137: real time      0.0136
       DOS:  cpu time      0.0005: real time      0.0005
    CHARGE:  cpu time      0.2685: real time      0.2687
    MIXING:  cpu time      0.0010: real time      0.0010
    --------------------------------------------
      LOOP:  cpu time      0.8793: real time      0.8972

 eigenvalue-minimisations  :  1736
 total energy-change (2. order) :-0.9563936E-03  (-0.2101766E-03)
 number of electron      64.0000000 magnetization 
 augmentation part       -3.6637657 magnetization 

 Broyden mixing:
  rms(total) = 0.25665E-01    rms(broyden)= 0.25665E-01
  rms(prec ) = 0.26757E-01
  weight for this iteration     100.00

 eigenvalues of (default mixing * dielectric matrix)
  average eigenvalue GAMMA=   1.5523
  2.8830  2.7448  1.9790  1.1819  0.8281  0.8281  0.4212

 Free energy of the ion-electron system (eV)
  ---------------------------------------------------
  alpha Z        PSCENC =        26.82694619
  Ewald energy   TEWEN  =     -1826.55336167
  -Hartree energ DENC   =      -117.33280110
  -exchange      EXHF   =         0.00000000
  -V(xc)+E(xc)   XCENC  =      -134.87502558
  PAW double counting   =      6891.34165458    -6616.43895370
  entropy T*S    EENTRO =        -0.00000000
  eigenvalues    EBANDS =        43.87379627
  atomic energy  EATOM  =      1641.21197842
  Solvation  Ediel_sol  =         0.00000000
  ---------------------------------------------------
  free energy    TOTEN  =       -91.94576658 eV

  energy without entropy =      -91.94576658  energy(sigma->0) =      -91.94576658


--------------------------------------------------------------------------------------------------------




--------------------------------------- Iteration      1(  13)  ---------------------------------------


    POTLOK:  cpu time      0.0431: real time      0.0432
    SETDIJ:  cpu time      0.0623: real time      0.0623
    EDDIAG:  cpu time      0.1776: real time      0.1776
  RMM-DIIS:  cpu time      0.3263: real time      0.3263
    ORTHCH:  cpu time      0.0145: real time      0.0145
       DOS:  cpu time      0.0005: real time      0.0005
    CHARGE:  cpu time      0.2699: real time      0.2701
    MIXING:  cpu time      0.0010: real time      0.0010
    --------------------------------------------
      LOOP:  cpu time      0.8951: real time      0.8954

 eigenvalue-minimisations  :  1771
 total energy-change (2. order) :-0.8168181E-04  (-0.1981052E-04)
 number of electron      64.0000000 magnetization 
 augmentation part       -3.6639899 magnetization 

 Broyden mixing:
  rms(total) = 0.10156E-01    rms(broyden)= 0.10156E-01
  rms(prec ) = 0.10264E-01
  weight for this iteration     100.00

 eigenvalues of (default mixing * dielectric matrix)
  average eigenvalue GAMMA=   1.5435
  3.0479  2.5755  1.7810  1.7810  0.7961  0.7961  0.7853  0.7853

 Free energy of the ion-electron system (eV)
  ---------------------------------------------------
  alpha Z        PSCENC =        26.82694619
  Ewald energy   TEWEN  =     -1826.55336167
  -Hartree energ DENC   =      -117.16133862
  -exchange      EXHF   =         0.00000000
  -V(xc)+E(xc)   XCENC  =      -134.89232629
  PAW double counting   =      6946.30271636    -6671.38500341
  entropy T*S    EENTRO =        -0.00000000
  eigenvalues    EBANDS =        43.70454075
  atomic energy  EATOM  =      1641.21197842
  Solvation  Ediel_sol  =         0.00000000
  ---------------------------------------------------
  free energy    TOTEN  =       -91.94584827 eV

  energy without entropy =      -91.94584827  energy(sigma->0) =      -91.94584827


--------------------------------------------------------------------------------------------------------




--------------------------------------- Iteration      1(  14)  ---------------------------------------


    POTLOK:  cpu time      0.0271: real time      0.0411
    SETDIJ:  cpu time      0.0653: real time      0.0653
    EDDIAG:  cpu time      0.1771: real time      0.1771
  RMM-DIIS:  cpu time      0.3632: real time      0.3632
    ORTHCH:  cpu time      0.0143: real time      0.0143
       DOS:  cpu time      0.0005: real time      0.0005
    CHARGE:  cpu time      0.2681: real time      0.2685
    MIXING:  cpu time      0.0010: real time      0.0010
    --------------------------------------------
      LOOP:  cpu time      0.9165: real time      0.9310

 eigenvalue-minimisations  :  1933
 total energy-change (2. order) :-0.7327413E-05  (-0.5668521E-05)
 number of electron      64.0000000 magnetization 
 augmentation part       -3.6641661 magnetization 

 Broyden mixing:
  rms(total) = 0.56952E-02    rms(broyden)= 0.56952E-02
  rms(prec ) = 0.58061E-02
  weight for this iteration     100.00

 eigenvalues of (default mixing * dielectric matrix)
  average eigenvalue GAMMA=   1.6229
  2.6138  2.6138  2.6644  1.8129  1.0677  1.0677  1.2097  0.8984  0.6571

 Free energy of the ion-electron system (eV)
  ---------------------------------------------------
  alpha Z        PSCENC =        26.82694619
  Ewald energy   TEWEN  =     -1826.55336167
  -Hartree energ DENC   =      -117.16717946
  -exchange      EXHF   =         0.00000000
  -V(xc)+E(xc)   XCENC  =      -134.89148521
  PAW double counting   =      6932.88328631    -6657.96788705
  entropy T*S    EENTRO =        -0.00000000
  eigenvalues    EBANDS =        43.71184687
  atomic energy  EATOM  =      1641.21197842
  Solvation  Ediel_sol  =         0.00000000
  ---------------------------------------------------
  free energy    TOTEN  =       -91.94585559 eV

  energy without entropy =      -91.94585559  energy(sigma->0) =      -91.94585559


--------------------------------------------------------------------------------------------------------




--------------------------------------- Iteration      1(  15)  ---------------------------------------


    POTLOK:  cpu time      0.0424: real time      0.0427
    SETDIJ:  cpu time      0.0633: real time      0.0633
    EDDIAG:  cpu time      0.1765: real time      0.1765
  RMM-DIIS:  cpu time      0.3401: real time      0.3401
    ORTHCH:  cpu time      0.0136: real time      0.0136
       DOS:  cpu time      0.0005: real time      0.0005
    CHARGE:  cpu time      0.2693: real time      0.2697
    MIXING:  cpu time      0.0011: real time      0.0011
    --------------------------------------------
      LOOP:  cpu time      0.9068: real time      0.9076

 eigenvalue-minimisations  :  1880
 total energy-change (2. order) :-0.2600882E-06  (-0.8960826E-06)
 number of electron      64.0000000 magnetization 
 augmentation part       -3.6642536 magnetization 

 Broyden mixing:
  rms(total) = 0.23537E-02    rms(broyden)= 0.23537E-02
  rms(prec ) = 0.23846E-02
  weight for this iteration     100.00

 eigenvalues of (default mixing * dielectric matrix)
  average eigenvalue GAMMA=   1.5569
  2.7278  2.7278  2.4434  1.5390  1.5390  1.2305  0.8999  0.8999  0.8818  0.6802

 Free energy of the ion-electron system (eV)
  ---------------------------------------------------
  alpha Z        PSCENC =        26.82694619
  Ewald energy   TEWEN  =     -1826.55336167
  -Hartree energ DENC   =      -117.13440360
  -exchange      EXHF   =         0.00000000
  -V(xc)+E(xc)   XCENC  =      -134.89668637
  PAW double counting   =      6904.29107327    -6629.37808791
  entropy T*S    EENTRO =        -0.00000000
  eigenvalues    EBANDS =        43.68668581
  atomic energy  EATOM  =      1641.21197842
  Solvation  Ediel_sol  =         0.00000000
  ---------------------------------------------------
  free energy    TOTEN  =       -91.94585585 eV

  energy without entropy =      -91.94585585  energy(sigma->0) =      -91.94585585


--------------------------------------------------------------------------------------------------------




--------------------------------------- Iteration      1(  16)  ---------------------------------------


    POTLOK:  cpu time      0.0271: real time      0.0435
    SETDIJ:  cpu time      0.0641: real time      0.0641
    EDDIAG:  cpu time      0.1786: real time      0.1786
  RMM-DIIS:  cpu time      0.3685: real time      0.3685
    ORTHCH:  cpu time      0.0141: real time      0.0141
       DOS:  cpu time      0.0005: real time      0.0005
    CHARGE:  cpu time      0.2696: real time      0.2696
    MIXING:  cpu time      0.0011: real time      0.0011
    --------------------------------------------
      LOOP:  cpu time      0.9237: real time      0.9401

 eigenvalue-minimisations  :  1975
 total energy-change (2. order) :-0.9951491E-06  (-0.2460542E-06)
 number of electron      64.0000000 magnetization 
 augmentation part       -3.6642484 magnetization 

 Broyden mixing:
  rms(total) = 0.17286E-02    rms(broyden)= 0.17286E-02
  rms(prec ) = 0.17840E-02
  weight for this iteration     100.00

 eigenvalues of (default mixing * dielectric matrix)
  average eigenvalue GAMMA=   1.5035
  2.6898  2.6898  2.4435  1.8250  1.8250  1.1833  0.8677  0.8677  0.8868  0.7053
  0.5544

 Free energy of the ion-electron system (eV)
  ---------------------------------------------------
  alpha Z        PSCENC =        26.82694619
  Ewald energy   TEWEN  =     -1826.55336167
  -Hartree energ DENC   =      -117.13616321
  -exchange      EXHF   =         0.00000000
  -V(xc)+E(xc)   XCENC  =      -134.89654571
  PAW double counting   =      6905.89593431    -6630.98312557
  entropy T*S    EENTRO =        -0.00000000
  eigenvalues    EBANDS =        43.68848039
  atomic energy  EATOM  =      1641.21197842
  Solvation  Ediel_sol  =         0.00000000
  ---------------------------------------------------
  free energy    TOTEN  =       -91.94585685 eV

  energy without entropy =      -91.94585685  energy(sigma->0) =      -91.94585685


--------------------------------------------------------------------------------------------------------




--------------------------------------- Iteration      1(  17)  ---------------------------------------


    POTLOK:  cpu time      0.0430: real time      0.0435
    SETDIJ:  cpu time      0.0646: real time      0.0650
    EDDIAG:  cpu time      0.1756: real time      0.1756
  RMM-DIIS:  cpu time      0.3339: real time      0.3339
    ORTHCH:  cpu time      0.0136: real time      0.0136
       DOS:  cpu time      0.0005: real time      0.0005
    CHARGE:  cpu time      0.2696: real time      0.2696
    MIXING:  cpu time      0.0011: real time      0.0011
    --------------------------------------------
      LOOP:  cpu time      0.9020: real time      0.9028

 eigenvalue-minimisations  :  1804
 total energy-change (2. order) : 0.2133520E-06  (-0.7264859E-07)
 number of electron      64.0000000 magnetization 
 augmentation part       -3.6642959 magnetization 

 Broyden mixing:
  rms(total) = 0.48547E-04    rms(broyden)= 0.48485E-04
  rms(prec ) = 0.52935E-04
  weight for this iteration     100.00

 eigenvalues of (default mixing * dielectric matrix)
  average eigenvalue GAMMA=   1.6256
  2.6202  2.6202  2.6136  2.6136  2.4162  0.9731  0.9731  1.0967  1.0051  1.0051
  0.9016  0.6689

 Free energy of the ion-electron system (eV)
  ---------------------------------------------------
  alpha Z        PSCENC =        26.82694619
  Ewald energy   TEWEN  =     -1826.55336167
  -Hartree energ DENC   =      -117.12695686
  -exchange      EXHF   =         0.00000000
  -V(xc)+E(xc)   XCENC  =      -134.89718089
  PAW double counting   =      6908.45201379    -6633.53885452
  entropy T*S    EENTRO =        -0.00000000
  eigenvalues    EBANDS =        43.67955890
  atomic energy  EATOM  =      1641.21197842
  Solvation  Ediel_sol  =         0.00000000
  ---------------------------------------------------
  free energy    TOTEN  =       -91.94585664 eV

  energy without entropy =      -91.94585664  energy(sigma->0) =      -91.94585664


--------------------------------------------------------------------------------------------------------




--------------------------------------- Iteration      1(  18)  ---------------------------------------


    POTLOK:  cpu time      0.0289: real time      0.0424
    SETDIJ:  cpu time      0.0644: real time      0.0645
    EDDIAG:  cpu time      0.1763: real time      0.1765
  RMM-DIIS:  cpu time      0.3427: real time      0.3428
    ORTHCH:  cpu time      0.0137: real time      0.0137
       DOS:  cpu time      0.0005: real time      0.0005
    CHARGE:  cpu time      0.2689: real time      0.2689
    MIXING:  cpu time      0.0015: real time      0.0015
    --------------------------------------------
      LOOP:  cpu time      0.8969: real time      0.9106

 eigenvalue-minimisations  :  1870
 total energy-change (2. order) :-0.3095192E-07  (-0.1604003E-07)
 number of electron      64.0000000 magnetization 
 augmentation part       -3.6643104 magnetization 

 Broyden mixing:
  rms(total) = 0.21392E-03    rms(broyden)= 0.21391E-03
  rms(prec ) = 0.21907E-03
  weight for this iteration     100.00

 eigenvalues of (default mixing * dielectric matrix)
  average eigenvalue GAMMA=   1.7316
  2.5089  3.0453  3.0453  2.5085  2.5085  2.4017  0.9630  0.9630  1.0602  1.0602
  0.6658  0.8904  0.8904

 Free energy of the ion-electron system (eV)
  ---------------------------------------------------
  alpha Z        PSCENC =        26.82694619
  Ewald energy   TEWEN  =     -1826.55336167
  -Hartree energ DENC   =      -117.12606016
  -exchange      EXHF   =         0.00000000
  -V(xc)+E(xc)   XCENC  =      -134.89726913
  PAW double counting   =      6908.73150484    -6633.81832752
  entropy T*S    EENTRO =        -0.00000000
  eigenvalues    EBANDS =        43.67873236
  atomic energy  EATOM  =      1641.21197842
  Solvation  Ediel_sol  =         0.00000000
  ---------------------------------------------------
  free energy    TOTEN  =       -91.94585667 eV

  energy without entropy =      -91.94585667  energy(sigma->0) =      -91.94585667


--------------------------------------------------------------------------------------------------------




--------------------------------------- Iteration      1(  19)  ---------------------------------------


    POTLOK:  cpu time      0.0426: real time      0.0428
    SETDIJ:  cpu time      0.0655: real time      0.0655
    EDDIAG:  cpu time      0.1759: real time      0.1761
  RMM-DIIS:  cpu time      0.2751: real time      0.2751
    ORTHCH:  cpu time      0.0141: real time      0.0141
       DOS:  cpu time      0.0005: real time      0.0005
    CHARGE:  cpu time      0.2690: real time      0.2690
    MIXING:  cpu time      0.0016: real time      0.0016
    --------------------------------------------
      LOOP:  cpu time      0.8442: real time      0.8447

 eigenvalue-minimisations  :  1405
 total energy-change (2. order) : 0.1765602E-07  (-0.2186266E-08)
 number of electron      64.0000000 magnetization 
 augmentation part       -3.6643140 magnetization 

 Broyden mixing:
  rms(total) = 0.20552E-03    rms(broyden)= 0.20550E-03
  rms(prec ) = 0.21252E-03
  weight for this iteration     100.00

 eigenvalues of (default mixing * dielectric matrix)
  average eigenvalue GAMMA=   1.5920
  2.2555  3.0341  3.0341  2.5077  2.5077  2.4063  0.9629  0.9629  1.0582  1.0582
  0.6658  0.8905  0.8905  0.0542

 Free energy of the ion-electron system (eV)
  ---------------------------------------------------
  alpha Z        PSCENC =        26.82694619
  Ewald energy   TEWEN  =     -1826.55336167
  -Hartree energ DENC   =      -117.12566834
  -exchange      EXHF   =         0.00000000
  -V(xc)+E(xc)   XCENC  =      -134.89733372
  PAW double counting   =      6908.49204037    -6633.57885316
  entropy T*S    EENTRO =        -0.00000000
  eigenvalues    EBANDS =        43.67839525
  atomic energy  EATOM  =      1641.21197842
  Solvation  Ediel_sol  =         0.00000000
  ---------------------------------------------------
  free energy    TOTEN  =       -91.94585665 eV

  energy without entropy =      -91.94585665  energy(sigma->0) =      -91.94585665


--------------------------------------------------------------------------------------------------------




--------------------------------------- Iteration      1(  20)  ---------------------------------------


    POTLOK:  cpu time      0.0272: real time      0.0425
    SETDIJ:  cpu time      0.0638: real time      0.0638
    EDDIAG:  cpu time      0.1753: real time      0.1753
  RMM-DIIS:  cpu time      0.2374: real time      0.2377
    ORTHCH:  cpu time      0.0136: real time      0.0136
       DOS:  cpu time      0.0005: real time      0.0005
    CHARGE:  cpu time      0.2697: real time      0.2697
    MIXING:  cpu time      0.0015: real time      0.0015
    --------------------------------------------
      LOOP:  cpu time      0.7890: real time      0.8046

 eigenvalue-minimisations  :  1165
 total energy-change (2. order) :-0.1524404E-07  (-0.8238672E-09)
 number of electron      64.0000000 magnetization 
 augmentation part       -3.6643113 magnetization 

 Broyden mixing:
  rms(total) = 0.12929E-03    rms(broyden)= 0.12926E-03
  rms(prec ) = 0.13397E-03
  weight for this iteration     100.00

 eigenvalues of (default mixing * dielectric matrix)
  average eigenvalue GAMMA=   1.6660
  3.2362  3.2362  2.5560  2.4222  2.4222  1.9849  1.9849  0.9636  0.9636  1.0397
  1.0397  0.9061  0.9061  0.6749  0.6545

 Free energy of the ion-electron system (eV)
  ---------------------------------------------------
  alpha Z        PSCENC =        26.82694619
  Ewald energy   TEWEN  =     -1826.55336167
  -Hartree energ DENC   =      -117.12624073
  -exchange      EXHF   =         0.00000000
  -V(xc)+E(xc)   XCENC  =      -134.89729508
  PAW double counting   =      6908.27828063    -6633.36511233
  entropy T*S    EENTRO =        -0.00000000
  eigenvalues    EBANDS =        43.67894791
  atomic energy  EATOM  =      1641.21197842
  Solvation  Ediel_sol  =         0.00000000
  ---------------------------------------------------
  free energy    TOTEN  =       -91.94585666 eV

  energy without entropy =      -91.94585666  energy(sigma->0) =      -91.94585666


--------------------------------------------------------------------------------------------------------




--------------------------------------- Iteration      1(  21)  ---------------------------------------


    POTLOK:  cpu time      0.0431: real time      0.0434
    SETDIJ:  cpu time      0.0633: real time      0.0633
    EDDIAG:  cpu time      0.1747: real time      0.1747
  RMM-DIIS:  cpu time      0.2238: real time      0.2238
    ORTHCH:  cpu time      0.0137: real time      0.0137
       DOS:  cpu time      0.0005: real time      0.0005
    CHARGE:  cpu time      0.2693: real time      0.2695
    MIXING:  cpu time      0.0016: real time      0.0016
    --------------------------------------------
      LOOP:  cpu time      0.7899: real time      0.7904

 eigenvalue-minimisations  :  1039
 total energy-change (2. order) :-0.2491379E-07  (-0.4968865E-09)
 number of electron      64.0000000 magnetization 
 augmentation part       -3.6643073 magnetization 

 Broyden mixing:
  rms(total) = 0.22274E-04    rms(broyden)= 0.22138E-04
  rms(prec ) = 0.22712E-04
  weight for this iteration     100.00

 eigenvalues of (default mixing * dielectric matrix)
  average eigenvalue GAMMA=   1.6261
  3.1647  3.1647  2.6576  2.6576  2.6865  2.3328  0.9648  0.9648  1.2395  1.2395
  1.0788  0.9178  0.9178  0.6687  0.6809  0.6809

 Free energy of the ion-electron system (eV)
  ---------------------------------------------------
  alpha Z        PSCENC =        26.82694619
  Ewald energy   TEWEN  =     -1826.55336167
  -Hartree energ DENC   =      -117.12717687
  -exchange      EXHF   =         0.00000000
  -V(xc)+E(xc)   XCENC  =      -134.89722314
  PAW double counting   =      6908.05160100    -6633.13845491
  entropy T*S    EENTRO =        -0.00000000
  eigenvalues    EBANDS =        43.67983429
  atomic energy  EATOM  =      1641.21197842
  Solvation  Ediel_sol  =         0.00000000
  ---------------------------------------------------
  free energy    TOTEN  =       -91.94585669 eV

  energy without entropy =      -91.94585669  energy(sigma->0) =      -91.94585669


--------------------------------------------------------------------------------------------------------




--------------------------------------- Iteration      1(  22)  ---------------------------------------


    POTLOK:  cpu time      0.0273: real time      0.0428
    SETDIJ:  cpu time      0.0649: real time      0.0649
    EDDIAG:  cpu time      0.1750: real time      0.1750
  RMM-DIIS:  cpu time      0.1956: real time      0.1956
    ORTHCH:  cpu time      0.0138: real time      0.0138
       DOS:  cpu time      0.0005: real time      0.0005
    --------------------------------------------
      LOOP:  cpu time      0.4953: real time      0.5108

 eigenvalue-minimisations  :   795
 total energy-change (2. order) :-0.4599315E-08  (-0.7812801E-10)
 number of electron      64.0000000 magnetization 
 augmentation part       -3.6643073 magnetization 

 Free energy of the ion-electron system (eV)
  ---------------------------------------------------
  alpha Z        PSCENC =        26.82694619
  Ewald energy   TEWEN  =     -1826.55336167
  -Hartree energ DENC   =      -117.12729693
  -exchange      EXHF   =         0.00000000
  -V(xc)+E(xc)   XCENC  =      -134.89721550
  PAW double counting   =      6908.02252220    -6633.10938007
  entropy T*S    EENTRO =        -0.00000000
  eigenvalues    EBANDS =        43.67995067
  atomic energy  EATOM  =      1641.21197842
  Solvation  Ediel_sol  =         0.00000000
  ---------------------------------------------------
  free energy    TOTEN  =       -91.94585669 eV

  energy without entropy =      -91.94585669  energy(sigma->0) =      -91.94585669


--------------------------------------------------------------------------------------------------------




 the core state eigenenergies are
   1-  1s  -1773.9810  2s   -127.9901  2p    -84.0139
   2-  1s  -1773.9810  2s   -127.9901  2p    -84.0139
   3-  1s  -1773.9810  2s   -127.9901  2p    -84.0139
   4-  1s  -1773.9810  2s   -127.9901  2p    -84.0139
   5-  1s  -1773.9810  2s   -127.9901  2p    -84.0139
   6-  1s  -1773.9810  2s   -127.9901  2p    -84.0139
   7-  1s  -1773.9810  2s   -127.9901  2p    -84.0139
   8-  1s  -1773.9810  2s   -127.9901  2p    -84.0139
   9-  1s  -1773.9810  2s   -127.9901  2p    -84.0139
  10-  1s  -1773.9810  2s   -127.9901  2p    -84.0139
  11-  1s  -1773.9810  2s   -127.9901  2p    -84.0139
  12-  1s  -1773.9810  2s   -127.9901  2p    -84.0139
  13-  1s  -1773.9810  2s   -127.9901  2p    -84.0139
  14-  1s  -1773.9810  2s   -127.9901  2p    -84.0139
  15-  1s  -1773.9810  2s   -127.9901  2p    -84.0139
  16-  1s  -1773.9810  2s   -127.9901  2p    -84.0139

 E-fermi :   5.8042     XC(G=0):  -9.5428     alpha+bet :-11.9461

 Fermi energy:         5.8041564625

 k-point     1 :       0.0000    0.0000    0.0000
  band No.  band energies     occupation 
      1      -6.2095      2.00000
      2      -3.8669      2.00000
      3      -3.8669      2.00000
      4      -3.8669      2.00000
      5      -3.8669      2.00000
      6      -2.0590      2.00000
      7      -2.0590      2.00000
      8      -2.0590      2.00000
      9      -2.0590      2.00000
     10      -2.0590      2.00000
     11      -2.0590      2.00000
     12      -1.2403      2.00000
     13      -1.2403      2.00000
     14      -1.2403      2.00000
     15      -1.2403      2.00000
     16       2.8944      2.00000
     17       2.8944      2.00000
     18       2.8944      2.00000
     19       2.8944      2.00000
     20       2.8944      2.00000
     21       2.8944      2.00000
     22       4.5603      2.00000
     23       4.5603      2.00000
     24       4.5603      2.00000
     25       4.5603      2.00000
     26       4.5603      2.00000
     27       4.5603      2.00000
     28       4.5603      2.00000
     29       4.5603      2.00000
     30       5.7613      2.00000
     31       5.7613      2.00000
     32       5.7613      2.00000
     33       6.3562      0.00000
     34       6.3562      0.00000
     35       6.3562      0.00000
     36       6.3562      0.00000
     37       6.3562      0.00000
     38       6.3562      0.00000
     39       7.2171      0.00000
     40       7.2171      0.00000
     41       7.2171      0.00000
     42       7.2171      0.00000
     43       8.2776      0.00000
     44       8.2776      0.00000
     45       8.2776      0.00000
     46       9.0357      0.00000
     47       9.0357      0.00000
     48       9.0494      0.00000

 k-point     2 :       0.1667    0.0000    0.0000
  band No.  band energies     occupation 
      1      -6.1184      2.00000
      2      -4.2049      2.00000
      3      -3.8301      2.00000
      4      -3.8301      2.00000
      5      -3.8301      2.00000
      6      -2.6564      2.00000
      7      -2.6564      2.00000
      8      -2.6564      2.00000
      9      -1.3908      2.00000
     10      -1.3908      2.00000
     11      -1.3908      2.00000
     12      -1.1349      2.00000
     13      -1.1349      2.00000
     14      -1.1349      2.00000
     15      -0.7307      2.00000
     16       2.5607      2.00000
     17       2.5607      2.00000
     18       2.5607      2.00000
     19       2.9705      2.00000
     20       2.9705      2.00000
     21       2.9705      2.00000
     22       3.9659      2.00000
     23       3.9659      2.00000
     24       3.9659      2.00000
     25       4.3805      2.00000
     26       4.3805      2.00000
     27       4.3805      2.00000
     28       4.6098      2.00000
     29       4.6098      2.00000
     30       4.8935      2.00000
     31       5.6159      2.00000
     32       5.6159      2.00000
     33       6.4218      0.00000
     34       6.4218      0.00000
     35       6.4218      0.00000
     36       6.9972      0.00000
     37       6.9972      0.00000
     38       6.9972      0.00000
     39       7.2745      0.00000
     40       7.7352      0.00000
     41       7.7352      0.00000
     42       7.7352      0.00000
     43       8.3125      0.00000
     44       8.4906      0.00000
     45       8.4906      0.00000
     46       8.9526      0.00000
     47       8.9530      0.00000
     48       8.9533      0.00000

 k-point     3 :       0.3333    0.0000    0.0000
  band No.  band energies     occupation 
      1      -5.8478      2.00000
      2      -4.8293      2.00000
      3      -3.7097      2.00000
      4      -3.7097      2.00000
      5      -3.7097      2.00000
      6      -3.1351      2.00000
      7      -3.1351      2.00000
      8      -3.1351      2.00000
      9      -0.8671      2.00000
     10      -0.8671      2.00000
     11      -0.8671      2.00000
     12      -0.8060      2.00000
     13      -0.8060      2.00000
     14      -0.8060      2.00000
     15       0.4038      2.00000
     16       2.0912      2.00000
     17       2.0912      2.00000
     18       2.0912      2.00000
     19       2.9590      2.00000
     20       2.9590      2.00000
     21       2.9590      2.00000
     22       3.1936      2.00000
     23       3.1936      2.00000
     24       3.1936      2.00000
     25       3.3645      2.00000
     26       3.9760      2.00000
     27       3.9760      2.00000
     28       3.9760      2.00000
     29       4.7576      2.00000
     30       4.7576      2.00000
     31       5.3074      2.00000
     32       5.3074      2.00000
     33       6.7152      0.00000
     34       6.7152      0.00000
     35       6.7152      0.00000
     36       7.4440      0.00000
     37       7.7122      0.00000
     38       7.7122      0.00000
     39       7.7122      0.00000
     40       8.0425      0.00000
     41       8.3834      0.00000
     42       8.3834      0.00000
     43       8.3834      0.00000
     44       8.9273      0.00000
     45       8.9273      0.00000
     46       9.2101      0.00000
     47       9.2101      0.00000
     48       9.8053      0.00000

 k-point     4 :       0.5000    0.0000    0.0000
  band No.  band energies     occupation 
      1      -5.4083      2.00000
      2      -5.4083      2.00000
      3      -3.4840      2.00000
      4      -3.4840      2.00000
      5      -3.4840      2.00000
      6      -3.4840      2.00000
      7      -3.4840      2.00000
      8      -3.4840      2.00000
      9      -0.6321      2.00000
     10      -0.6321      2.00000
     11      -0.6321      2.00000
     12      -0.6321      2.00000
     13      -0.6321      2.00000
     14      -0.6321      2.00000
     15       1.8144      2.00000
     16       1.8144      2.00000
     17       2.1914      2.00000
     18       2.1914      2.00000
     19       2.1914      2.00000
     20       2.1914      2.00000
     21       2.1914      2.00000
     22       2.1914      2.00000
     23       3.5444      2.00000
     24       3.5444      2.00000
     25       3.5444      2.00000
     26       3.5444      2.00000
     27       3.5444      2.00000
     28       3.5444      2.00000
     29       4.9977      2.00000
     30       4.9977      2.00000
     31       4.9977      2.00000
     32       4.9977      2.00000
     33       7.1782      0.00000
     34       7.1782      0.00000
     35       7.1782      0.00000
     36       7.1782      0.00000
     37       7.1782      0.00000
     38       7.1782      0.00000
     39       7.7130      0.00000
     40       7.7130      0.00000
     41       9.2173      0.00000
     42       9.2173      0.00000
     43       9.2173      0.00000
     44       9.2173      0.00000
     45      10.1171      0.00000
     46      10.1171      0.00000
     47      10.1171      0.00000
     48      10.1171      0.00000

 k-point     5 :       0.1667    0.1667    0.0000
  band No.  band energies     occupation 
      1      -6.0879      2.00000
      2      -3.9525      2.00000
      3      -3.9525      2.00000
      4      -3.9525      2.00000
      5      -3.9525      2.00000
      6      -3.2714      2.00000
      7      -2.0198      2.00000
      8      -2.0198      2.00000
      9      -2.0198      2.00000
     10      -2.0198      2.00000
     11      -0.9556      2.00000
     12      -0.9556      2.00000
     13      -0.9556      2.00000
     14      -0.9556      2.00000
     15      -0.7026      2.00000
     16       2.5767      2.00000
     17       2.5767      2.00000
     18       2.5767      2.00000
     19       2.5767      2.00000
     20       3.0041      2.00000
     21       3.0041      2.00000
     22       3.8693      2.00000
     23       3.8693      2.00000
     24       3.8693      2.00000
     25       3.8693      2.00000
     26       4.5252      2.00000
     27       4.5252      2.00000
     28       4.5252      2.00000
     29       4.5252      2.00000
     30       5.0629      2.00000
     31       5.3253      2.00000
     32       5.3253      2.00000
     33       6.2229      0.00000
     34       6.8198      0.00000
     35       6.9809      0.00000
     36       6.9809      0.00000
     37       6.9809      0.00000
     38       6.9809      0.00000
     39       7.7630      0.00000
     40       7.7630      0.00000
     41       7.7630      0.00000
     42       7.7630      0.00000
     43       7.9908      0.00000
     44       8.8619      0.00000
     45       8.8619      0.00000
     46       9.0691      0.00000
     47       9.0692      0.00000
     48       9.0692      0.00000

 k-point     6 :       0.3333    0.1667    0.0000
  band No.  band energies     occupation 
      1      -5.8766      2.00000
      2      -4.5389      2.00000
      3      -3.9674      2.00000
      4      -3.9674      2.00000
      5      -3.7666      2.00000
      6      -3.5937      2.00000
      7      -2.5614      2.00000
      8      -2.5614      2.00000
      9      -1.3814      2.00000
     10      -1.3814      2.00000
     11      -1.0287      2.00000
     12      -0.6221      2.00000
[...]
      7      -2.9241      2.00000
      8      -2.9241      2.00000
      9      -1.0910      2.00000
     10      -1.0910      2.00000
     11      -1.0145      2.00000
     12       0.1141      2.00000
     13       0.1141      2.00000
     14       1.2995      2.00000
     15       1.3127      2.00000
     16       1.3127      2.00000
     17       1.7110      2.00000
     18       1.7110      2.00000
     19       2.0343      2.00000
     20       2.1534      2.00000
     21       2.1534      2.00000
     22       2.9709      2.00000
     23       2.9709      2.00000
     24       3.3182      2.00000
     25       3.4439      2.00000
     26       3.4439      2.00000
     27       3.6386      2.00000
     28       3.7480      2.00000
     29       3.7480      2.00000
     30       4.0038      2.00000
     31       4.0038      2.00000
     32       5.1964      2.00000
     33       7.2238      0.00000
     34       7.6425      0.00000
     35       7.6425      0.00000
     36       8.5356      0.00000
     37       8.5356      0.00000
     38       8.7426      0.00000
     39       9.0217      0.00000
     40       9.0217      0.00000
     41       9.2458      0.00000
     42       9.2458      0.00000
     43       9.2710      0.00000
     44       9.3721      0.00000
     45       9.3721      0.00000
     46       9.5381      0.00000
     47       9.7485      0.00000
     48       9.7494      0.00000

 k-point    13 :       0.5000    0.5000    0.0000
  band No.  band energies     occupation 
      1      -5.1260      2.00000
      2      -5.1260      2.00000
      3      -4.1607      2.00000
      4      -4.1607      2.00000
      5      -4.1607      2.00000
      6      -4.1607      2.00000
      7      -1.8902      2.00000
      8      -1.8902      2.00000
      9      -1.8902      2.00000
     10      -1.8902      2.00000
     11       0.2736      2.00000
     12       0.2736      2.00000
     13       0.2736      2.00000
     14       0.2736      2.00000
     15       1.8652      2.00000
     16       1.8652      2.00000
     17       1.8652      2.00000
     18       1.8652      2.00000
     19       1.9668      2.00000
     20       1.9668      2.00000
     21       1.9668      2.00000
     22       1.9668      2.00000
     23       2.2415      2.00000
     24       2.2415      2.00000
     25       3.8583      2.00000
     26       3.8583      2.00000
     27       3.8583      2.00000
     28       3.8583      2.00000
     29       4.4278      2.00000
     30       4.4278      2.00000
     31       4.4278      2.00000
     32       4.4278      2.00000
     33       6.7979      0.00000
     34       6.7979      0.00000
     35       8.1251      0.00000
     36       8.1251      0.00000
     37       8.1251      0.00000
     38       8.1251      0.00000
     39       8.7867      0.00000
     40       8.7867      0.00000
     41       9.9341      0.00000
     42       9.9341      0.00000
     43       9.9341      0.00000
     44       9.9341      0.00000
     45      10.5015      0.00000
     46      10.5084      0.00000
     47      10.5694      0.00000
     48      10.6890      0.00000

 k-point    14 :       0.5000    0.3333    0.1667
  band No.  band energies     occupation 
      1      -5.6074      2.00000
      2      -4.5929      2.00000
      3      -4.5929      2.00000
      4      -4.2033      2.00000
      5      -3.4884      2.00000
      6      -3.4884      2.00000
      7      -2.9769      2.00000
      8      -2.4026      2.00000
      9      -1.4972      2.00000
     10      -0.8814      2.00000
     11      -0.8006      2.00000
     12      -0.8006      2.00000
     13       0.4733      2.00000
     14       0.4733      2.00000
     15       0.5734      2.00000
     16       1.4633      2.00000
     17       1.9533      2.00000
     18       2.1396      2.00000
     19       2.1396      2.00000
     20       2.5781      2.00000
     21       2.8957      2.00000
     22       2.9645      2.00000
     23       3.0252      2.00000
     24       3.3021      2.00000
     25       3.3021      2.00000
     26       3.3308      2.00000
     27       3.7738      2.00000
     28       3.7738      2.00000
     29       4.1063      2.00000
     30       4.4443      2.00000
     31       4.4443      2.00000
     32       5.0509      2.00000
     33       7.0628      0.00000
     34       7.4124      0.00000
     35       8.0308      0.00000
     36       8.1308      0.00000
     37       8.2973      0.00000
     38       8.2973      0.00000
     39       8.3478      0.00000
     40       8.3478      0.00000
     41       8.3575      0.00000
     42       8.7491      0.00000
     43       9.0836      0.00000
     44       9.0836      0.00000
     45       9.2590      0.00000
     46       9.4299      0.00000
     47       9.4299      0.00000
     48       9.8429      0.00000

 k-point    15 :      -0.3333    0.3333    0.1667
  band No.  band energies     occupation 
      1      -5.1701      2.00000
      2      -5.1701      2.00000
      3      -4.4811      2.00000
      4      -4.4811      2.00000
      5      -3.2878      2.00000
      6      -3.2878      2.00000
      7      -2.9294      2.00000
      8      -2.9294      2.00000
      9      -1.0538      2.00000
     10      -1.0538      2.00000
     11      -0.6581      2.00000
     12      -0.6581      2.00000
     13       0.7831      2.00000
     14       0.7831      2.00000
     15       1.4784      2.00000
     16       1.4784      2.00000
     17       1.7802      2.00000
     18       1.7802      2.00000
     19       1.8038      2.00000
     20       1.8038      2.00000
     21       2.8649      2.00000
     22       2.8649      2.00000
     23       3.1020      2.00000
     24       3.1020      2.00000
     25       3.3187      2.00000
     26       3.3187      2.00000
     27       3.5709      2.00000
     28       3.5709      2.00000
     29       3.8304      2.00000
     30       3.8304      2.00000
     31       4.7740      2.00000
     32       4.7740      2.00000
     33       7.8000      0.00000
     34       7.8000      0.00000
     35       7.8031      0.00000
     36       7.8031      0.00000
     37       8.3094      0.00000
     38       8.3094      0.00000
     39       8.9017      0.00000
     40       8.9017      0.00000
     41       9.2227      0.00000
     42       9.2227      0.00000
     43       9.4110      0.00000
     44       9.4110      0.00000
     45       9.4466      0.00000
     46       9.4466      0.00000
     47      10.2634      0.00000
     48      10.2689      0.00000

 k-point    16 :      -0.3333    0.5000    0.1667
  band No.  band energies     occupation 
      1      -5.0152      2.00000
      2      -5.0152      2.00000
      3      -4.6877      2.00000
      4      -4.6877      2.00000
      5      -3.4704      2.00000
      6      -3.4704      2.00000
      7      -2.6822      2.00000
      8      -2.6822      2.00000
      9      -1.1595      2.00000
     10      -1.1595      2.00000
     11      -0.4611      2.00000
     12      -0.4611      2.00000
     13       1.0658      2.00000
     14       1.0658      2.00000
     15       1.5057      2.00000
     16       1.5057      2.00000
     17       1.5651      2.00000
     18       1.5651      2.00000
     19       1.8360      2.00000
     20       1.8360      2.00000
     21       2.6270      2.00000
     22       2.6270      2.00000
     23       2.6493      2.00000
     24       2.6493      2.00000
     25       3.4071      2.00000
     26       3.4071      2.00000
     27       3.6671      2.00000
     28       3.6671      2.00000
     29       4.1226      2.00000
     30       4.1226      2.00000
     31       4.4799      2.00000
     32       4.4799      2.00000
     33       7.4698      0.00000
     34       7.4698      0.00000
     35       8.2009      0.00000
     36       8.2009      0.00000
     37       8.9046      0.00000
     38       8.9046      0.00000
     39       8.9969      0.00000
     40       8.9969      0.00000
     41       9.0564      0.00000
     42       9.0564      0.00000
     43       9.1885      0.00000
     44       9.1885      0.00000
     45      10.1543      0.00000
     46      10.1564      0.00000
     47      10.3358      0.00000
     48      10.3684      0.00000


--------------------------------------------------------------------------------------------------------


 soft charge-density along one line, spin component           1
         0         1         2         3         4         5         6         7         8         9
 total charge-density along one line

 pseudopotential strength for first ion, spin component:           1
 18.405  25.677  -0.000  -0.000  -0.000  -0.000  -0.000  -0.000
 25.677  35.826  -0.000  -0.000  -0.000  -0.000  -0.000  -0.000
 -0.000  -0.000   4.177  -0.000  -0.000   7.782  -0.000  -0.000
 -0.000  -0.000  -0.000   4.177  -0.000  -0.000   7.782  -0.000
 -0.000  -0.000  -0.000  -0.000   4.177  -0.000  -0.000   7.782
 -0.000  -0.000   7.782  -0.000  -0.000  14.509  -0.000  -0.000
 -0.000  -0.000  -0.000   7.782  -0.000  -0.000  14.509  -0.000
 -0.000  -0.000  -0.000  -0.000   7.782  -0.000  -0.000  14.509
 total augmentation occupancy for first ion, spin component:           1
  5.893  -2.260   0.000  -0.000  -0.000  -0.000  -0.000  -0.000
 -2.260   0.978  -0.000  -0.000   0.000  -0.000   0.000  -0.000
  0.000   0.000   2.927  -0.000   0.000  -0.654   0.000  -0.000
 -0.000  -0.000  -0.000   2.927   0.000   0.000  -0.654  -0.000
  0.000  -0.000   0.000  -0.000   2.927  -0.000  -0.000  -0.654
  0.000  -0.000  -0.654   0.000  -0.000   0.155  -0.000   0.000
 -0.000   0.000   0.000  -0.654  -0.000  -0.000   0.155  -0.000
 -0.000   0.000  -0.000  -0.000  -0.654   0.000   0.000   0.155


------------------------ aborting loop because EDIFF is reached ----------------------------------------





 total charge

# of ion       s       p       d       tot
------------------------------------------
    1        0.752   0.937   0.000   1.689
    2        0.752   0.937   0.000   1.689
    3        0.752   0.937   0.000   1.689
    4        0.752   0.937   0.000   1.689
    5        0.752   0.937   0.000   1.689
    6        0.752   0.937   0.000   1.689
    7        0.752   0.937   0.000   1.689
    8        0.752   0.937   0.000   1.689
    9        0.752   0.937   0.000   1.689
   10        0.752   0.937   0.000   1.689
   11        0.752   0.937   0.000   1.689
   12        0.752   0.937   0.000   1.689
   13        0.752   0.937   0.000   1.689
   14        0.752   0.937   0.000   1.689
   15        0.752   0.937   0.000   1.689
   16        0.752   0.937   0.000   1.689
--------------------------------------------------
tot         12.037  14.985   0.000  27.021

    CHARGE:  cpu time      0.2577: real time      0.2582
    FORLOC:  cpu time      0.0019: real time      0.0020
    FORNL :  cpu time      0.4896: real time      0.4897
    STRESS:  cpu time      1.4264: real time      1.4275
    FORCOR:  cpu time      0.0168: real time      0.0168
    FORHAR:  cpu time      0.0061: real time      0.0063
    MIXING:  cpu time      0.0017: real time      0.0017
    OFIELD:  cpu time      0.0013: real time      0.0014

  FORCE on cell =-STRESS in cart. coord.  units (eV):
  Direction    XX          YY          ZZ          XY          YZ          ZX
  --------------------------------------------------------------------------------------
  Alpha Z    26.82695    26.82695    26.82695
  Ewald    -608.85308  -608.85308  -608.85308    -0.00000    -0.00000     0.00000
  Hartree    39.04244    39.04244    39.04244     0.00000     0.00000     0.00000
  E(xc)    -204.26634  -204.26634  -204.26634     0.00000     0.00000     0.00000
  Local    -232.55250  -232.55250  -232.55250     0.00003     0.00003     0.00003
  n-local   623.93658   626.85489   610.81181     6.01031    -4.34886     3.17109
  augment   -92.13481   -92.13481   -92.13481    -0.00002    -0.00002    -0.00002
  Kinetic   456.29415   459.98456   437.91710    10.42221    -7.27133     5.19158
  Fock        0.00000     0.00000     0.00000     0.00000     0.00000     0.00000
  -------------------------------------------------------------------------------------
  Total      -0.00433    -0.00433    -0.00433    -0.00000    -0.00000     0.00000
  in kB      -0.02157    -0.02157    -0.02157    -0.00000    -0.00000     0.00000
  external pressure =       -0.02 kB  Pullay stress =        0.00 kB


 VOLUME and BASIS-vectors are now :
 -----------------------------------------------------------------------------
  energy-cutoff  :      600.00
  volume of cell :      321.24
      direct lattice vectors                 reciprocal lattice vectors
     0.000000000  5.435811800  5.435811800    -0.091982581  0.091982581  0.091982581
     5.435811800  0.000000000  5.435811800     0.091982581 -0.091982581  0.091982581
     5.435811800  5.435811800  0.000000000     0.091982581  0.091982581 -0.091982581

  length of vectors
     7.687398769  7.687398769  7.687398769     0.159318504  0.159318504  0.159318504


 FORCES acting on ions
    electron-ion (+dipol)            ewald-force                    non-local-force                 convergence-correction
 -----------------------------------------------------------------------------------------------
   -.789E-08 -.789E-08 -.770E-08   0.122E-13 -.124E-13 -.204E-13   0.838E-16 0.616E-16 0.746E-16   -.133E-10 -.133E-10 -.133E-10
   -.789E-08 -.789E-08 -.770E-08   0.131E-13 -.127E-13 -.207E-13   0.171E-16 0.896E-16 0.693E-16   -.133E-10 -.133E-10 -.133E-10
   -.789E-08 -.789E-08 -.770E-08   0.133E-13 -.104E-13 -.175E-13   0.698E-16 0.438E-16 0.345E-16   -.133E-10 -.133E-10 -.133E-10
   -.789E-08 -.789E-08 -.770E-08   0.142E-13 -.107E-13 -.142E-13   0.831E-16 0.453E-16 0.450E-16   -.133E-10 -.133E-10 -.133E-10
   -.789E-08 -.789E-08 -.770E-08   0.135E-13 -.955E-14 -.167E-13   0.632E-16 0.554E-16 0.633E-16   -.133E-10 -.133E-10 -.133E-10
   -.789E-08 -.789E-08 -.770E-08   0.142E-13 -.711E-14 -.178E-13   0.772E-16 0.642E-16 0.130E-16   -.133E-10 -.133E-10 -.133E-10
   -.789E-08 -.789E-08 -.770E-08   0.142E-13 -.107E-13 -.213E-13   0.707E-16 0.334E-16 0.507E-16   -.133E-10 -.133E-10 -.133E-10
   -.789E-08 -.789E-08 -.770E-08   0.142E-13 -.142E-13 -.178E-13   0.777E-16 0.486E-16 0.594E-16   -.133E-10 -.133E-10 -.133E-10
   0.789E-08 0.789E-08 0.770E-08   -.121E-13 0.124E-13 0.192E-13   -.840E-16 -.589E-16 -.734E-16   0.133E-10 0.133E-10 0.133E-10
   0.789E-08 0.789E-08 0.770E-08   -.132E-13 0.121E-13 0.204E-13   -.181E-16 -.953E-16 -.737E-16   0.133E-10 0.133E-10 0.133E-10
   0.789E-08 0.789E-08 0.770E-08   -.129E-13 0.991E-14 0.167E-13   -.694E-16 -.421E-16 -.346E-16   0.133E-10 0.133E-10 0.133E-10
   0.789E-08 0.789E-08 0.770E-08   -.135E-13 0.100E-13 0.148E-13   -.859E-16 -.486E-16 -.515E-16   0.133E-10 0.133E-10 0.133E-10
   0.789E-08 0.789E-08 0.770E-08   -.148E-13 0.972E-14 0.158E-13   -.593E-16 -.567E-16 -.588E-16   0.133E-10 0.133E-10 0.133E-10
   0.789E-08 0.789E-08 0.770E-08   -.152E-13 0.719E-14 0.183E-13   -.759E-16 -.646E-16 -.172E-16   0.133E-10 0.133E-10 0.133E-10
   0.789E-08 0.789E-08 0.770E-08   -.147E-13 0.144E-13 0.213E-13   -.675E-16 -.250E-16 -.614E-16   0.133E-10 0.133E-10 0.133E-10
   0.789E-08 0.789E-08 0.770E-08   -.148E-13 0.138E-13 0.223E-13   -.719E-16 -.511E-16 -.563E-16   0.133E-10 0.133E-10 0.133E-10
 -----------------------------------------------------------------------------------------------
   0.874E-12 -.219E-12 -.493E-13   -.201E-14 0.179E-14 0.247E-14   0.105E-16 -.389E-18 -.171E-16   0.271E-14 -.893E-14 -.272E-13


 POSITION                                       TOTAL-FORCE (eV/Angst)
 -----------------------------------------------------------------------------------
      1.35895      1.35895      1.35895        -0.000000     -0.000000      0.000000
      1.35895      4.07686      4.07686        -0.000000      0.000000      0.000000
      4.07686      1.35895      4.07686        -0.000000     -0.000000      0.000000
      4.07686      4.07686      6.79476        -0.000000     -0.000000      0.000000
      4.07686      4.07686      1.35895        -0.000000     -0.000000     -0.000000
      4.07686      6.79476      4.07686        -0.000000     -0.000000      0.000000
      6.79476      4.07686      4.07686        -0.000000     -0.000000      0.000000
      6.79476      6.79476      6.79476        -0.000000     -0.000000      0.000000
      0.00000      0.00000      0.00000         0.000000      0.000000     -0.000000
      0.00000      2.71791      2.71791         0.000000      0.000000     -0.000000
      2.71791      0.00000      2.71791         0.000000      0.000000     -0.000000
      2.71791      2.71791      5.43581         0.000000     -0.000000     -0.000000
      2.71791      2.71791      0.00000         0.000000      0.000000      0.000000
      2.71791      5.43581      2.71791         0.000000      0.000000     -0.000000
      5.43581      2.71791      2.71791         0.000000      0.000000     -0.000000
      5.43581      5.43581      5.43581         0.000000      0.000000     -0.000000
 -----------------------------------------------------------------------------------
    total drift:                                0.000000     -0.000000     -0.000000


--------------------------------------------------------------------------------------------------------



  FREE ENERGIE OF THE ION-ELECTRON SYSTEM (eV)
  ---------------------------------------------------
  free  energy   TOTEN  =       -91.94585669 eV

  energy  without entropy=      -91.94585669  energy(sigma->0) =      -91.94585669



--------------------------------------------------------------------------------------------------------


    POTLOK:  cpu time      0.0821: real time      0.0821


--------------------------------------------------------------------------------------------------------


 writing wavefunctions
     LOOP+:  cpu time     24.5677: real time     24.9821
    4ORBIT:  cpu time      0.0000: real time      0.0000



 total charge

# of ion       s       p       d       tot
------------------------------------------
    1        0.752   0.937   0.000   1.689
    2        0.752   0.937   0.000   1.689
    3        0.752   0.937   0.000   1.689
    4        0.752   0.937   0.000   1.689
    5        0.752   0.937   0.000   1.689
    6        0.752   0.937   0.000   1.689
    7        0.752   0.937   0.000   1.689
    8        0.752   0.937   0.000   1.689
    9        0.752   0.937   0.000   1.689
   10        0.752   0.937   0.000   1.689
   11        0.752   0.937   0.000   1.689
   12        0.752   0.937   0.000   1.689
   13        0.752   0.937   0.000   1.689
   14        0.752   0.937   0.000   1.689
   15        0.752   0.937   0.000   1.689
   16        0.752   0.937   0.000   1.689
--------------------------------------------------
tot         12.037  14.985   0.000  27.021


 total amount of memory used by VASP MPI-rank0    36369. kBytes
=======================================================================

   base      :      30000. kBytes
   nonl-proj :        890. kBytes
   fftplans  :       2941. kBytes
   grid      :       1454. kBytes
   one-center:          3. kBytes
   wavefun   :       1081. kBytes

  
  
 General timing and accounting informations for this job:
 ========================================================
  
                  Total CPU time used (sec):       34.073
                            User time (sec):       31.338
                          System time (sec):        2.735
                         Elapsed time (sec):       34.959
  
                   Maximum memory used (kb):      145172.
                   Average memory used (kb):          N/A
  
                          Minor page faults:        83336
                          Major page faults:          583
                 Voluntary context switches:         2651
