PROCAR lm decomposed
# of k-points:   16         # of bands:   48         # of ions:   16

 k-point     1 :    0.00000000 0.00000000 0.00000000     weight = 0.00462963

band     1 # energy   -6.20951987 # occ.  2.00000000

ion      s     py     pz     px    dxy    dyz    dz2    dxz  x2-y2    tot
    1  0.027  0.000  0.000  0.000  0.000  0.000  0.000  0.000  0.000  0.027
    2  0.027  0.000  0.000  0.000  0.000  0.000  0.000  0.000  0.000  0.027
    3  0.027  0.000  0.000  0.000  0.000  0.000  0.000  0.000  0.000  0.027
    4  0.027  0.000  0.000  0.000  0.000  0.000  0.000  0.000  0.000  0.027
    5  0.027  0.000  0.000  0.000  0.000  0.000  0.000  0.000  0.000  0.027
    6  0.027  0.000  0.000  0.000  0.000  0.000  0.000  0.000  0.000  0.027
    7  0.027  0.000  0.000  0.000  0.000  0.000  0.000  0.000  0.000  0.027
    8  0.027  0.000  0.000  0.000  0.000  0.000  0.000  0.000  0.000  0.027
    9  0.027  0.000  0.000  0.000  0.000  0.000  0.000  0.000  0.000  0.027
   10  0.027  0.000  0.000  0.000  0.000  0.000  0.000  0.000  0.000  0.027
   11  0.027  0.000  0.000  0.000  0.000  0.000  0.000  0.000  0.000  0.027
   12  0.027  0.000  0.000  0.000  0.000  0.000  0.000  0.000  0.000  0.027
   13  0.027  0.000  0.000  0.000  0.000  0.000  0.000  0.000  0.000  0.027
   14  0.027  0.000  0.000  0.000  0.000  0.000  0.000  0.000  0.000  0.027
   15  0.027  0.000  0.000  0.000  0.000  0.000  0.000  0.000  0.000  0.027
   16  0.027  0.000  0.000  0.000  0.000  0.000  0.000  0.000  0.000  0.027
tot    0.425  0.000  0.000  0.000  0.000  0.000  0.000  0.000  0.000  0.425

band     2 # energy   -3.86692626 # occ.  2.00000000

ion      s     py     pz     px    dxy    dyz    dz2    dxz  x2-y2    tot
    1  0.028  0.001  0.001  0.001  0.000  0.000  0.000  0.000  0.000  0.030
    2  0.028  0.001  0.001  0.001  0.000  0.000  0.000  0.000  0.000  0.030
    3  0.028  0.001  0.001  0.001  0.000  0.000  0.000  0.000  0.000  0.030
    4  0.028  0.001  0.001  0.001  0.000  0.000  0.000  0.000  0.000  0.030
    5  0.028  0.001  0.001  0.001  0.000  0.000  0.000  0.000  0.000  0.030
    6  0.028  0.001  0.001  0.001  0.000  0.000  0.000  0.000  0.000  0.030
    7  0.028  0.001  0.001  0.001  0.000  0.000  0.000  0.000  0.000  0.030
    8  0.028  0.001  0.001  0.001  0.000  0.000  0.000  0.000  0.000  0.030
    9  0.028  0.001  0.001  0.001  0.000  0.000  0.000  0.000  0.000  0.030
   10  0.028  0.001  0.001  0.001  0.000  0.000  0.000  0.000  0.000  0.030
   11  0.028  0.001  0.001  0.001  0.000  0.000  0.000  0.000  0.000  0.030
   12  0.028  0.001  0.001  0.001  0.000  0.000  0.000  0.000  0.000  0.030
   13  0.028  0.001  0.001  0.001  0.000  0.000  0.000  0.000  0.000  0.030
   14  0.028  0.001  0.001  0.001  0.000  0.000  0.000  0.000  0.000  0.030
   15  0.028  0.001  0.001  0.001  0.000  0.000  0.000  0.000  0.000  0.030
   16  0.028  0.001  0.001  0.001  0.000  0.000  0.000  0.000  0.000  0.030
tot    0.450  0.009  0.009  0.009  0.000  0.000  0.000  0.000  0.000  0.478

band     3 # energy   -3.86692626 # occ.  2.00000000

ion      s     py     pz     px    dxy    dyz    dz2    dxz  x2-y2    tot
    1  0.061  0.000  0.001  0.000  0.000  0.000  0.000  0.000  0.000  0.062
    2  0.002  0.001  0.000  0.001  0.000  0.000  0.000  0.000  0.000  0.004
    3  0.008  0.001  0.000  0.001  0.000  0.000  0.000  0.000  0.000  0.010
    4  0.042  0.000  0.001  0.000  0.000  0.000  0.000  0.000  0.000  0.043
    5  0.042  0.000  0.001  0.000  0.000  0.000  0.000  0.000  0.000  0.043
    6  0.008  0.001  0.000  0.001  0.000  0.000  0.000  0.000  0.000  0.010
    7  0.002  0.001  0.000  0.001  0.000  0.000  0.000  0.000  0.000  0.004
    8  0.061  0.000  0.001  0.000  0.000  0.000  0.000  0.000  0.000  0.062
    9  0.061  0.000  0.001  0.000  0.000  0.000  0.000  0.000  0.000  0.062
   10  0.002  0.001  0.000  0.001  0.000  0.000  0.000  0.000  0.000  0.004
   11  0.008  0.001  0.000  0.001  0.000  0.000  0.000  0.000  0.000  0.010
   12  0.042  0.000  0.001  0.000  0.000  0.000  0.000  0.000  0.000  0.043
   13  0.042  0.000  0.001  0.000  0.000  0.000  0.000  0.000  0.000  0.043
   14  0.008  0.001  0.000  0.001  0.000  0.000  0.000  0.000  0.000  0.010
   15  0.002  0.001  0.000  0.001  0.000  0.000  0.000  0.000  0.000  0.004
   16  0.061  0.000  0.001  0.000  0.000  0.000  0.000  0.000  0.000  0.062
tot    0.450  0.009  0.009  0.009  0.000  0.000  0.000  0.000  0.000  0.478

band     4 # energy   -3.86692626 # occ.  2.00000000

ion      s     py     pz     px    dxy    dyz    dz2    dxz  x2-y2    tot
    1  0.005  0.001  0.000  0.001  0.000  0.000  0.000  0.000  0.000  0.007
    2  0.032  0.000  0.001  0.000  0.000  0.000  0.000  0.000  0.000  0.033
    3  0.068  0.000  0.001  0.000  0.000  0.000  0.000  0.000  0.000  0.069
    4  0.008  0.001  0.000  0.001  0.000  0.000  0.000  0.000  0.000  0.010
    5  0.008  0.001  0.000  0.001  0.000  0.000  0.000  0.000  0.000  0.010
    6  0.068  0.000  0.001  0.000  0.000  0.000  0.000  0.000  0.000  0.069
    7  0.032  0.000  0.001  0.000  0.000  0.000  0.000  0.000  0.000  0.033
    8  0.005  0.001  0.000  0.001  0.000  0.000  0.000  0.000  0.000  0.007
    9  0.005  0.001  0.000  0.001  0.000  0.000  0.000  0.000  0.000  0.007
   10  0.032  0.000  0.001  0.000  0.000  0.000  0.000  0.000  0.000  0.033
   11  0.068  0.000  0.001  0.000  0.000  0.000  0.000  0.000  0.000  0.069
   12  0.008  0.001  0.000  0.001  0.000  0.000  0.000  0.000  0.000  0.010
   13  0.008  0.001  0.000  0.001  0.000  0.000  0.000  0.000  0.000  0.010
   14  0.068  0.000  0.001  0.000  0.000  0.000  0.000  0.000  0.000  0.069
   15  0.032  0.000  0.001  0.000  0.000  0.000  0.000  0.000  0.000  0.033
   16  0.005  0.001  0.000  0.001  0.000  0.000  0.000  0.000  0.000  0.007
tot    0.450  0.009  0.009  0.009  0.000  0.000  0.000  0.000  0.000  0.478

band     5 # energy   -3.86692626 # occ.  2.00000000

ion      s     py     pz     px    dxy    dyz    dz2    dxz  x2-y2    tot
    1  0.018  0.000  0.001  0.001  0.000  0.000  0.000  0.000  0.000  0.020
    2  0.051  0.001  0.000  0.000  0.000  0.000  0.000  0.000  0.000  0.052
    3  0.009  0.000  0.001  0.001  0.000  0.000  0.000  0.000  0.000  0.011
    4  0.035  0.001  0.000  0.000  0.000  0.000  0.000  0.000  0.000  0.036
    5  0.035  0.001  0.000  0.000  0.000  0.000  0.000  0.000  0.000  0.036
    6  0.009  0.000  0.001  0.001  0.000  0.000  0.000  0.000  0.000  0.011
    7  0.051  0.001  0.000  0.000  0.000  0.000  0.000  0.000  0.000  0.052
    8  0.018  0.000  0.001  0.001  0.000  0.000  0.000  0.000  0.000  0.020
    9  0.018  0.000  0.001  0.001  0.000  0.000  0.000  0.000  0.000  0.020
   10  0.051  0.001  0.000  0.000  0.000  0.000  0.000  0.000  0.000  0.052
   11  0.009  0.000  0.001  0.001  0.000  0.000  0.000  0.000  0.000  0.011
   12  0.035  0.001  0.000  0.000  0.000  0.000  0.000  0.000  0.000  0.036
   13  0.035  0.001  0.000  0.000  0.000  0.000  0.000  0.000  0.000  0.036
   14  0.009  0.000  0.001  0.001  0.000  0.000  0.000  0.000  0.000  0.011
   15  0.051  0.001  0.000  0.000  0.000  0.000  0.000  0.000  0.000  0.052
   16  0.018  0.000  0.001  0.001  0.000  0.000  0.000  0.000  0.000  0.020
tot    0.450  0.009  0.009  0.009  0.000  0.000  0.000  0.000  0.000  0.478

band     6 # energy   -2.05895175 # occ.  2.00000000

ion      s     py     pz     px    dxy    dyz    dz2    dxz  x2-y2    tot
    1  0.038  0.001  0.005  0.000  0.000  0.000  0.000  0.000  0.000  0.043
    2  0.023  0.001  0.005  0.000  0.000  0.000  0.000  0.000  0.000  0.029
    3  0.025  0.001  0.005  0.000  0.000  0.000  0.000  0.000  0.000  0.030
    4  0.011  0.001  0.005  0.000  0.000  0.000  0.000  0.000  0.000  0.017
    5  0.011  0.001  0.005  0.000  0.000  0.000  0.000  0.000  0.000  0.017
    6  0.025  0.001  0.005  0.000  0.000  0.000  0.000  0.000  0.000  0.030
    7  0.023  0.001  0.005  0.000  0.000  0.000  0.000  0.000  0.000  0.029
    8  0.038  0.001  0.005  0.000  0.000  0.000  0.000  0.000  0.000  0.043
    9  0.038  0.001  0.005  0.000  0.000  0.000  0.000  0.000  0.000  0.043
   10  0.023  0.001  0.005  0.000  0.000  0.000  0.000  0.000  0.000  0.029
   11  0.025  0.001  0.005  0.000  0.000  0.000  0.000  0.000  0.000  0.030
   12  0.011  0.001  0.005  0.000  0.000  0.000  0.000  0.000  0.000  0.017
   13  0.011  0.001  0.005  0.000  0.000  0.000  0.000  0.000  0.000  0.017
   14  0.025  0.001  0.005  0.000  0.000  0.000  0.000  0.000  0.000  0.030
   15  0.023  0.001  0.005  0.000  0.000  0.000  0.000  0.000  0.000  0.029
   16  0.038  0.001  0.005  0.000  0.000  0.000  0.000  0.000  0.000  0.043
tot    0.386  0.012  0.077  0.002  0.000  0.000  0.000  0.000  0.000  0.477

band     7 # energy   -2.05895175 # occ.  2.00000000

ion      s     py     pz     px    dxy    dyz    dz2    dxz  x2-y2    tot
    1  0.018  0.005  0.000  0.001  0.000  0.000  0.000  0.000  0.000  0.024
    2  0.022  0.005  0.000  0.001  0.000  0.000  0.000  0.000  0.000  0.027
    3  0.039  0.005  0.000  0.001  0.000  0.000  0.000  0.000  0.000  0.045
    4  0.017  0.005  0.000  0.001  0.000  0.000  0.000  0.000  0.000  0.023
    5  0.017  0.005  0.000  0.001  0.000  0.000  0.000  0.000  0.000  0.023
    6  0.039  0.005  0.000  0.001  0.000  0.000  0.000  0.000  0.000  0.045
    7  0.022  0.005  0.000  0.001  0.000  0.000  0.000  0.000  0.000  0.027
    8  0.018  0.005  0.000  0.001  0.000  0.000  0.000  0.000  0.000  0.024
    9  0.018  0.005  0.000  0.001  0.000  0.000  0.000  0.000  0.000  0.024
   10  0.022  0.005  0.000  0.001  0.000  0.000  0.000  0.000  0.000  0.027
   11  0.039  0.005  0.000  0.001  0.000  0.000  0.000  0.000  0.000  0.045
   12  0.017  0.005  0.000  0.001  0.000  0.000  0.000  0.000  0.000  0.023
   13  0.017  0.005  0.000  0.001  0.000  0.000  0.000  0.000  0.000  0.023
   14  0.039  0.005  0.000  0.001  0.000  0.000  0.000  0.000  0.000  0.045
   15  0.022  0.005  0.000  0.001  0.000  0.000  0.000  0.000  0.000  0.027
   16  0.018  0.005  0.000  0.001  0.000  0.000  0.000  0.000  0.000  0.024
tot    0.386  0.073  0.008  0.010  0.000  0.000  0.000  0.000  0.000  0.477

band     8 # energy   -2.05895175 # occ.  2.00000000

ion      s     py     pz     px    dxy    dyz    dz2    dxz  x2-y2    tot
    1  0.017  0.000  0.000  0.005  0.000  0.000  0.000  0.000  0.000  0.022
    2  0.028  0.000  0.000  0.005  0.000  0.000  0.000  0.000  0.000  0.033
    3  0.009  0.000  0.000  0.005  0.000  0.000  0.000  0.000  0.000  0.014
    4  0.044  0.000  0.000  0.005  0.000  0.000  0.000  0.000  0.000  0.050
    5  0.044  0.000  0.000  0.005  0.000  0.000  0.000  0.000  0.000  0.050
    6  0.009  0.000  0.000  0.005  0.000  0.000  0.000  0.000  0.000  0.014
    7  0.028  0.000  0.000  0.005  0.000  0.000  0.000  0.000  0.000  0.033
    8  0.017  0.000  0.000  0.005  0.000  0.000  0.000  0.000  0.000  0.022
    9  0.016  0.000  0.000  0.005  0.000  0.000  0.000  0.000  0.000  0.022
   10  0.028  0.000  0.000  0.005  0.000  0.000  0.000  0.000  0.000  0.033
   11  0.009  0.000  0.000  0.005  0.000  0.000  0.000  0.000  0.000  0.014
   12  0.044  0.000  0.000  0.005  0.000  0.000  0.000  0.000  0.000  0.050
   13  0.044  0.000  0.000  0.005  0.000  0.000  0.000  0.000  0.000  0.050
   14  0.009  0.000  0.000  0.005  0.000  0.000  0.000  0.000  0.000  0.014
   15  0.028  0.000  0.000  0.005  0.000  0.000  0.000  0.000  0.000  0.033
   16  0.016  0.000  0.000  0.005  0.000  0.000  0.000  0.000  0.000  0.022
tot    0.386  0.006  0.006  0.078  0.000  0.000  0.000  0.000  0.000  0.477

band     9 # energy   -2.05895175 # occ.  2.00000000

ion      s     py     pz     px    dxy    dyz    dz2    dxz  x2-y2    tot
    1  0.006  0.002  0.001  0.002  0.000  0.000  0.000  0.000  0.000  0.012
    2  0.060  0.002  0.001  0.002  0.000  0.000  0.000  0.000  0.000  0.065
    3  0.014  0.002  0.001  0.002  0.000  0.000  0.000  0.000  0.000  0.020
    4  0.016  0.002  0.001  0.002  0.000  0.000  0.000  0.000  0.000  0.022
    5  0.016  0.002  0.001  0.002  0.000  0.000  0.000  0.000  0.000  0.022
    6  0.014  0.002  0.001  0.002  0.000  0.000  0.000  0.000  0.000  0.020
    7  0.060  0.002  0.001  0.002  0.000  0.000  0.000  0.000  0.000  0.065
    8  0.006  0.002  0.001  0.002  0.000  0.000  0.000  0.000  0.000  0.012
    9  0.006  0.002  0.001  0.002  0.000  0.000  0.000  0.000  0.000  0.012
   10  0.060  0.002  0.001  0.002  0.000  0.000  0.000  0.000  0.000  0.065
   11  0.014  0.002  0.001  0.002  0.000  0.000  0.000  0.000  0.000  0.020
   12  0.016  0.002  0.001  0.002  0.000  0.000  0.000  0.000  0.000  0.022
   13  0.016  0.002  0.001  0.002  0.000  0.000  0.000  0.000  0.000  0.022
   14  0.014  0.002  0.001  0.002  0.000  0.000  0.000  0.000  0.000  0.020
   15  0.060  0.002  0.001  0.002  0.000  0.000  0.000  0.000  0.000  0.065
   16  0.006  0.002  0.001  0.002  0.000  0.000  0.000  0.000  0.000  0.012
tot    0.386  0.037  0.020  0.034  0.000  0.000  0.000  0.000  0.000  0.477

band    10 # energy   -2.05895175 # occ.  2.00000000

ion      s     py     pz     px    dxy    dyz    dz2    dxz  x2-y2    tot
    1  0.048  0.002  0.002  0.001  0.000  0.000  0.000  0.000  0.000  0.054
    2  0.009  0.002  0.002  0.001  0.000  0.000  0.000  0.000  0.000  0.015
    3  0.012  0.002  0.002  0.001  0.000  0.000  0.000  0.000  0.000  0.018
    4  0.027  0.002  0.002  0.001  0.000  0.000  0.000  0.000  0.000  0.033
    5  0.027  0.002  0.002  0.001  0.000  0.000  0.000  0.000  0.000  0.033
    6  0.012  0.002  0.002  0.001  0.000  0.000  0.000  0.000  0.000  0.018
    7  0.009  0.002  0.002  0.001  0.000  0.000  0.000  0.000  0.000  0.015
    8  0.048  0.002  0.002  0.001  0.000  0.000  0.000  0.000  0.000  0.054
    9  0.048  0.002  0.002  0.001  0.000  0.000  0.000  0.000  0.000  0.054
   10  0.009  0.002  0.002  0.001  0.000  0.000  0.000  0.000  0.000  0.015
   11  0.012  0.002  0.002  0.001  0.000  0.000  0.000  0.000  0.000  0.018
   12  0.027  0.002  0.002  0.001  0.000  0.000  0.000  0.000  0.000  0.033
   13  0.027  0.002  0.002  0.001  0.000  0.000  0.000  0.000  0.000  0.033
   14  0.012  0.002  0.002  0.001  0.000  0.000  0.000  0.000  0.000  0.018
   15  0.009  0.002  0.002  0.001  0.000  0.000  0.000  0.000  0.000  0.015
   16  0.048  0.002  0.002  0.001  0.000  0.000  0.000  0.000  0.000  0.054
tot    0.386  0.029  0.040  0.022  0.000  0.000  0.000  0.000  0.000  0.477

band    11 # energy   -2.05895175 # occ.  2.00000000

ion      s     py     pz     px    dxy    dyz    dz2    dxz  x2-y2    tot
    1  0.018  0.002  0.002  0.002  0.000  0.000  0.000  0.000  0.000  0.024
    2  0.003  0.002  0.002  0.002  0.000  0.000  0.000  0.000  0.000  0.009
    3  0.046  0.002  0.002  0.002  0.000  0.000  0.000  0.000  0.000  0.052
    4  0.029  0.002  0.002  0.002  0.000  0.000  0.000  0.000  0.000  0.035
    5  0.029  0.002  0.002  0.002  0.000  0.000  0.000  0.000  0.000  0.035
    6  0.046  0.002  0.002  0.002  0.000  0.000  0.000  0.000  0.000  0.052
    7  0.003  0.002  0.002  0.002  0.000  0.000  0.000  0.000  0.000  0.009
    8  0.018  0.002  0.002  0.002  0.000  0.000  0.000  0.000  0.000  0.024
    9  0.018  0.002  0.002  0.002  0.000  0.000  0.000  0.000  0.000  0.024
   10  0.003  0.002  0.002  0.002  0.000  0.000  0.000  0.000  0.000  0.009
   11  0.046  0.002  0.002  0.002  0.000  0.000  0.000  0.000  0.000  0.052
   12  0.029  0.002  0.002  0.002  0.000  0.000  0.000  0.000  0.000  0.035
   13  0.029  0.002  0.002  0.002  0.000  0.000  0.000  0.000  0.000  0.035
   14  0.046  0.002  0.002  0.002  0.000  0.000  0.000  0.000  0.000  0.052
   15  0.003  0.002  0.002  0.002  0.000  0.000  0.000  0.000  0.000  0.009
   16  0.018  0.002  0.002  0.002  0.000  0.000  0.000  0.000  0.000  0.024
tot    0.386  0.025  0.031  0.034  0.000  0.000  0.000  0.000  0.000  0.477

band    12 # energy   -1.24033190 # occ.  2.00000000

ion      s     py     pz     px    dxy    dyz    dz2    dxz  x2-y2    tot
    1  0.003  0.002  0.007  0.006  0.000  0.000  0.000  0.000  0.000  0.018
    2  0.018  0.007  0.002  0.001  0.000  0.000  0.000  0.000  0.000  0.028
    3  0.006  0.001  0.006  0.007  0.000  0.000  0.000  0.000  0.000  0.020
    4  0.021  0.006  0.001  0.002  0.000  0.000  0.000  0.000  0.000  0.030
    5  0.021  0.006  0.001  0.002  0.000  0.000  0.000  0.000  0.000  0.030
    6  0.006  0.001  0.006  0.007  0.000  0.000  0.000  0.000  0.000  0.020
    7  0.018  0.007  0.002  0.001  0.000  0.000  0.000  0.000  0.000  0.028
    8  0.003  0.002  0.007  0.006  0.000  0.000  0.000  0.000  0.000  0.018
    9  0.003  0.002  0.007  0.006  0.000  0.000  0.000  0.000  0.000  0.018
   10  0.018  0.007  0.002  0.001  0.000  0.000  0.000  0.000  0.000  0.028
   11  0.006  0.001  0.006  0.007  0.000  0.000  0.000  0.000  0.000  0.020
   12  0.021  0.006  0.001  0.002  0.000  0.000  0.000  0.000  0.000  0.030
   13  0.021  0.006  0.001  0.002  0.000  0.000  0.000  0.000  0.000  0.030
   14  0.006  0.001  0.006  0.007  0.000  0.000  0.000  0.000  0.000  0.020
   15  0.018  0.007  0.002  0.001  0.000  0.000  0.000  0.000  0.000  0.028
   16  0.003  0.002  0.007  0.006  0.000  0.000  0.000  0.000  0.000  0.018
tot    0.194  0.062  0.062  0.062  0.000  0.000  0.000  0.000  0.000  0.382

band    13 # energy   -1.24033190 # occ.  2.00000000

ion      s     py     pz     px    dxy    dyz    dz2    dxz  x2-y2    tot
    1  0.001  0.008  0.004  0.003  0.000  0.000  0.000  0.000  0.000  0.016
    2  0.009  0.004  0.008  0.000  0.000  0.000  0.000  0.000  0.000  0.022
    3  0.025  0.000  0.003  0.004  0.000  0.000  0.000  0.000  0.000  0.033
    4  0.014  0.003  0.000  0.008  0.000  0.000  0.000  0.000  0.000  0.025
    5  0.014  0.003  0.000  0.008  0.000  0.000  0.000  0.000  0.000  0.025
    6  0.025  0.000  0.003  0.004  0.000  0.000  0.000  0.000  0.000  0.033
    7  0.009  0.004  0.008  0.000  0.000  0.000  0.000  0.000  0.000  0.022
    8  0.001  0.008  0.004  0.003  0.000  0.000  0.000  0.000  0.000  0.016
    9  0.001  0.008  0.004  0.003  0.000  0.000  0.000  0.000  0.000  0.016
   10  0.009  0.004  0.008  0.000  0.000  0.000  0.000  0.000  0.000  0.022
   11  0.025  0.000  0.003  0.004  0.000  0.000  0.000  0.000  0.000  0.033
   12  0.014  0.003  0.000  0.008  0.000  0.000  0.000  0.000  0.000  0.025
   13  0.014  0.003  0.000  0.008  0.000  0.000  0.000  0.000  0.000  0.025
   14  0.025  0.000  0.003  0.004  0.000  0.000  0.000  0.000  0.000  0.033
   15  0.009  0.004  0.008  0.000  0.000  0.000  0.000  0.000  0.000  0.022
   16  0.001  0.008  0.004  0.003  0.000  0.000  0.000  0.000  0.000  0.016
tot    0.194  0.062  0.062  0.062  0.000  0.000  0.000  0.000  0.000  0.382

band    14 # energy   -1.24033190 # occ.  2.00000000

ion      s     py     pz     px    dxy    dyz    dz2    dxz  x2-y2    tot
    1  0.033  0.002  0.000  0.003  0.000  0.000  0.000  0.000  0.000  0.038
    2  0.009  0.000  0.002  0.011  0.000  0.000  0.000  0.000  0.000  0.022
    3  0.005  0.011  0.003  0.000  0.000  0.000  0.000  0.000  0.000  0.019
    4  0.001  0.003  0.011  0.002  0.000  0.000  0.000  0.000  0.000  0.017
    5  0.001  0.003  0.011  0.002  0.000  0.000  0.000  0.000  0.000  0.017
    6  0.005  0.011  0.003  0.000  0.000  0.000  0.000  0.000  0.000  0.019
    7  0.009  0.000  0.002  0.011  0.000  0.000  0.000  0.000  0.000  0.022
    8  0.033  0.002  0.000  0.003  0.000  0.000  0.000  0.000  0.000  0.038
    9  0.033  0.002  0.000  0.003  0.000  0.000  0.000  0.000  0.000  0.038
   10  0.009  0.000  0.002  0.011  0.000  0.000  0.000  0.000  0.000  0.022
   11  0.005  0.011  0.003  0.000  0.000  0.000  0.000  0.000  0.000  0.019
   12  0.001  0.003  0.011  0.002  0.000  0.000  0.000  0.000  0.000  0.017
   13  0.001  0.003  0.011  0.002  0.000  0.000  0.000  0.000  0.000  0.017
   14  0.005  0.011  0.003  0.000  0.000  0.000  0.000  0.000  0.000  0.019
   15  0.009  0.000  0.002  0.011  0.000  0.000  0.000  0.000  0.000  0.022
   16  0.033  0.002  0.000  0.003  0.000  0.000  0.000  0.000  0.000  0.038
tot    0.194  0.062  0.062  0.062  0.000  0.000  0.000  0.000  0.000  0.382

band    15 # energy   -1.24033190 # occ.  2.00000000

ion      s     py     pz     px    dxy    dyz    dz2    dxz  x2-y2    tot
    1  0.012  0.004  0.004  0.004  0.000  0.000  0.000  0.000  0.000  0.024
    2  0.012  0.004  0.004  0.004  0.000  0.000  0.000  0.000  0.000  0.024
    3  0.012  0.004  0.004  0.004  0.000  0.000  0.000  0.000  0.000  0.024
    4  0.012  0.004  0.004  0.004  0.000  0.000  0.000  0.000  0.000  0.024
    5  0.012  0.004  0.004  0.004  0.000  0.000  0.000  0.000  0.000  0.024
    6  0.012  0.004  0.004  0.004  0.000  0.000  0.000  0.000  0.000  0.024
    7  0.012  0.004  0.004  0.004  0.000  0.000  0.000  0.000  0.000  0.024
    8  0.012  0.004  0.004  0.004  0.000  0.000  0.000  0.000  0.000  0.024
    9  0.012  0.004  0.004  0.004  0.000  0.000  0.000  0.000  0.000  0.024
   10  0.012  0.004  0.004  0.004  0.000  0.000  0.000  0.000  0.000  0.024
   11  0.012  0.004  0.004  0.004  0.000  0.000  0.000  0.000  0.000  0.024
   12  0.012  0.004  0.004  0.004  0.000  0.000  0.000  0.000  0.000  0.024
   13  0.012  0.004  0.004  0.004  0.000  0.000  0.000  0.000  0.000  0.024
   14  0.012  0.004  0.004  0.004  0.000  0.000  0.000  0.000  0.000  0.024
   15  0.012  0.004  0.004  0.004  0.000  0.000  0.000  0.000  0.000  0.024
   16  0.012  0.004  0.004  0.004  0.000  0.000  0.000  0.000  0.000  0.024
tot    0.194  0.062  0.062  0.062  0.000  0.000  0.000  0.000  0.000  0.382

band    16 # energy    2.89443635 # occ.  2.00000000

ion      s     py     pz     px    dxy    dyz    dz2    dxz  x2-y2    tot
    1  0.000  0.013  0.000  0.016  0.000  0.000  0.000  0.000  0.000  0.029
    2  0.000  0.011  0.000  0.016  0.000  0.000  0.000  0.000  0.000  0.027
    3  0.000  0.013  0.000  0.009  0.000  0.000  0.000  0.000  0.000  0.022
    4  0.000  0.011  0.000  0.009  0.000  0.000  0.000  0.000  0.000  0.021
    5  0.000  0.011  0.000  0.009  0.000  0.000  0.000  0.000  0.000  0.021
    6  0.000  0.013  0.000  0.009  0.000  0.000  0.000  0.000  0.000  0.022
    7  0.000  0.011  0.000  0.016  0.000  0.000  0.000  0.000  0.000  0.027
    8  0.000  0.013  0.000  0.016  0.000  0.000  0.000  0.000  0.000  0.029
    9  0.000  0.013  0.000  0.016  0.000  0.000  0.000  0.000  0.000  0.029
   10  0.000  0.011  0.000  0.016  0.000  0.000  0.000  0.000  0.000  0.027
   11  0.000  0.013  0.000  0.009  0.000  0.000  0.000  0.000  0.000  0.022
   12  0.000  0.011  0.000  0.009  0.000  0.000  0.000  0.000  0.000  0.021
   13  0.000  0.011  0.000  0.009  0.000  0.000  0.000  0.000  0.000  0.021
   14  0.000  0.013  0.000  0.009  0.000  0.000  0.000  0.000  0.000  0.022
   15  0.000  0.011  0.000  0.016  0.000  0.000  0.000  0.000  0.000  0.027
   16  0.000  0.013  0.000  0.016  0.000  0.000  0.000  0.000  0.000  0.029
tot    0.000  0.193  0.004  0.196  0.000  0.000  0.000  0.000  0.000  0.394

band    17 # energy    2.89443635 # occ.  2.00000000

ion      s     py     pz     px    dxy    dyz    dz2    dxz  x2-y2    tot
    1  0.000  0.002  0.013  0.007  0.000  0.000  0.000  0.000  0.000  0.022
    2  0.000  0.003  0.011  0.007  0.000  0.000  0.000  0.000  0.000  0.021
    3  0.000  0.002  0.011  0.014  0.000  0.000  0.000  0.000  0.000  0.026
    4  0.000  0.003  0.013  0.014  0.000  0.000  0.000  0.000  0.000  0.029
    5  0.000  0.003  0.013  0.014  0.000  0.000  0.000  0.000  0.000  0.029
    6  0.000  0.002  0.011  0.014  0.000  0.000  0.000  0.000  0.000  0.026
    7  0.000  0.003  0.011  0.007  0.000  0.000  0.000  0.000  0.000  0.021
    8  0.000  0.002  0.013  0.007  0.000  0.000  0.000  0.000  0.000  0.022
    9  0.000  0.002  0.013  0.007  0.000  0.000  0.000  0.000  0.000  0.022
   10  0.000  0.003  0.011  0.007  0.000  0.000  0.000  0.000  0.000  0.021
   11  0.000  0.002  0.011  0.014  0.000  0.000  0.000  0.000  0.000  0.026
   12  0.000  0.003  0.013  0.014  0.000  0.000  0.000  0.000  0.000  0.029
   13  0.000  0.003  0.013  0.014  0.000  0.000  0.000  0.000  0.000  0.029
   14  0.000  0.002  0.011  0.014  0.000  0.000  0.000  0.000  0.000  0.026
   15  0.000  0.003  0.011  0.007  0.000  0.000  0.000  0.000  0.000  0.021
   16  0.000  0.002  0.013  0.007  0.000  0.000  0.000  0.000  0.000  0.022
tot    0.000  0.036  0.193  0.165  0.000  0.000  0.000  0.000  0.000  0.394

band    18 # energy    2.89443635 # occ.  2.00000000

ion      s     py     pz     px    dxy    dyz    dz2    dxz  x2-y2    tot
    1  0.000  0.010  0.011  0.002  0.000  0.000  0.000  0.000  0.000  0.023
    2  0.000  0.011  0.014  0.002  0.000  0.000  0.000  0.000  0.000  0.026
    3  0.000  0.010  0.014  0.002  0.000  0.000  0.000  0.000  0.000  0.025
    4  0.000  0.011  0.011  0.002  0.000  0.000  0.000  0.000  0.000  0.024
    5  0.000  0.011  0.011  0.002  0.000  0.000  0.000  0.000  0.000  0.024
    6  0.000  0.010  0.014  0.002  0.000  0.000  0.000  0.000  0.000  0.025
    7  0.000  0.011  0.014  0.002  0.000  0.000  0.000  0.000  0.000  0.026
    8  0.000  0.010  0.011  0.002  0.000  0.000  0.000  0.000  0.000  0.023
    9  0.000  0.010  0.011  0.002  0.000  0.000  0.000  0.000  0.000  0.023
   10  0.000  0.011  0.014  0.002  0.000  0.000  0.000  0.000  0.000  0.026
   11  0.000  0.010  0.014  0.002  0.000  0.000  0.000  0.000  0.000  0.025
   12  0.000  0.011  0.011  0.002  0.000  0.000  0.000  0.000  0.000  0.024
   13  0.000  0.011  0.011  0.002  0.000  0.000  0.000  0.000  0.000  0.024
   14  0.000  0.010  0.014  0.002  0.000  0.000  0.000  0.000  0.000  0.025
   15  0.000  0.011  0.014  0.002  0.000  0.000  0.000  0.000  0.000  0.026
   16  0.000  0.010  0.011  0.002  0.000  0.000  0.000  0.000  0.000  0.023
tot    0.000  0.165  0.197  0.032  0.000  0.000  0.000  0.000  0.000  0.394

band    19 # energy    2.89443635 # occ.  2.00000000

ion      s     py     pz     px    dxy    dyz    dz2    dxz  x2-y2    tot
    1  0.000  0.012  0.003  0.003  0.000  0.000  0.000  0.000  0.000  0.018
    2  0.000  0.009  0.021  0.003  0.000  0.000  0.000  0.000  0.000  0.033
    3  0.000  0.012  0.021  0.001  0.000  0.000  0.000  0.000  0.000  0.035
    4  0.000  0.009  0.003  0.001  0.000  0.000  0.000  0.000  0.000  0.013
    5  0.000  0.009  0.003  0.001  0.000  0.000  0.000  0.000  0.000  0.013
    6  0.000  0.012  0.021  0.001  0.000  0.000  0.000  0.000  0.000  0.035
    7  0.000  0.009  0.021  0.003  0.000  0.000  0.000  0.000  0.000  0.033
    8  0.000  0.012  0.003  0.003  0.000  0.000  0.000  0.000  0.000  0.018
    9  0.000  0.012  0.003  0.003  0.000  0.000  0.000  0.000  0.000  0.018
   10  0.000  0.009  0.021  0.003  0.000  0.000  0.000  0.000  0.000  0.033
   11  0.000  0.012  0.021  0.001  0.000  0.000  0.000  0.000  0.000  0.035
   12  0.000  0.009  0.003  0.001  0.000  0.000  0.000  0.000  0.000  0.013
   13  0.000  0.009  0.003  0.001  0.000  0.000  0.000  0.000  0.000  0.013
   14  0.000  0.012  0.021  0.001  0.000  0.000  0.000  0.000  0.000  0.035
   15  0.000  0.009  0.021  0.003  0.000  0.000  0.000  0.000  0.000  0.033
   16  0.000  0.012  0.003  0.003  0.000  0.000  0.000  0.000  0.000  0.018
tot    0.000  0.163  0.195  0.037  0.000  0.000  0.000  0.000  0.000  0.394

band    20 # energy    2.89443635 # occ.  2.00000000

ion      s     py     pz     px    dxy    dyz    dz2    dxz  x2-y2    tot
    1  0.000  0.004  0.006  0.021  0.000  0.000  0.000  0.000  0.000  0.031
    2  0.000  0.016  0.001  0.021  0.000  0.000  0.000  0.000  0.000  0.037
    3  0.000  0.004  0.001  0.002  0.000  0.000  0.000  0.000  0.000  0.007
    4  0.000  0.016  0.006  0.002  0.000  0.000  0.000  0.000  0.000  0.024
    5  0.000  0.016  0.006  0.002  0.000  0.000  0.000  0.000  0.000  0.024
    6  0.000  0.004  0.001  0.002  0.000  0.000  0.000  0.000  0.000  0.007
    7  0.000  0.016  0.001  0.021  0.000  0.000  0.000  0.000  0.000  0.037
    8  0.000  0.004  0.006  0.021  0.000  0.000  0.000  0.000  0.000  0.031
    9  0.000  0.004  0.006  0.021  0.000  0.000  0.000  0.000  0.000  0.031
   10  0.000  0.016  0.001  0.021  0.000  0.000  0.000  0.000  0.000  0.037
   11  0.000  0.004  0.001  0.002  0.000  0.000  0.000  0.000  0.000  0.007
   12  0.000  0.016  0.006  0.002  0.000  0.000  0.000  0.000  0.000  0.024
   13  0.000  0.016  0.006  0.002  0.000  0.000  0.000  0.000  0.000  0.024
   14  0.000  0.004  0.001  0.002  0.000  0.000  0.000  0.000  0.000  0.007
   15  0.000  0.016  0.001  0.021  0.000  0.000  0.000  0.000  0.000  0.037
   16  0.000  0.004  0.006  0.021  0.000  0.000  0.000  0.000  0.000  0.031
tot    0.000  0.158  0.055  0.181  0.000  0.000  0.000  0.000  0.000  0.394

band    21 # energy    2.89443635 # occ.  2.00000000

ion      s     py     pz     px    dxy    dyz    dz2    dxz  x2-y2    tot
    1  0.000  0.009  0.015  0.001  0.000  0.000  0.000  0.000  0.000  0.025
    2  0.000  0.000  0.003  0.001  0.000  0.000  0.000  0.000  0.000  0.004
    3  0.000  0.009  0.003  0.021  0.000  0.000  0.000  0.000  0.000  0.032
    4  0.000  0.000  0.015  0.021  0.000  0.000  0.000  0.000  0.000  0.037
    5  0.000  0.000  0.015  0.021  0.000  0.000  0.000  0.000  0.000  0.037
    6  0.000  0.009  0.003  0.021  0.000  0.000  0.000  0.000  0.000  0.032
    7  0.000  0.000  0.003  0.001  0.000  0.000  0.000  0.000  0.000  0.004
    8  0.000  0.009  0.015  0.001  0.000  0.000  0.000  0.000  0.000  0.025
    9  0.000  0.009  0.015  0.001  0.000  0.000  0.000  0.000  0.000  0.025
   10  0.000  0.000  0.003  0.001  0.000  0.000  0.000  0.000  0.000  0.004
   11  0.000  0.009  0.003  0.021  0.000  0.000  0.000  0.000  0.000  0.032
   12  0.000  0.000  0.015  0.021  0.000  0.000  0.000  0.000  0.000  0.037
   13  0.000  0.000  0.015  0.021  0.000  0.000  0.000  0.000  0.000  0.037
   14  0.000  0.009  0.003  0.021  0.000  0.000  0.000  0.000  0.000  0.032
   15  0.000  0.000  0.003  0.001  0.000  0.000  0.000  0.000  0.000  0.004
   16  0.000  0.009  0.015  0.001  0.000  0.000  0.000  0.000  0.000  0.025