 vasp.6.3.0 20Jan22 (build Feb 21 2022 11:18:28) complex                         
 executed on       CrayXC_GCC_OMP date 2023.09.29  07:58:43
 running  128 mpi-ranks, with    1 threads/rank
 distrk:  each k-point on  128 cores,    1 groups
 distr:  one band on NCORE=  16 cores,    8 groups


--------------------------------------------------------------------------------------------------------


 INCAR:
   NWRITE = 2        (Medium-level output)   
   ISTART = 1        (Read existing wavefunction
   INIWAV = 1        (Random initial wavefunction
   ICORELEVEL = 1    (Print core levels)
   LPLANE = TRUE (Real space distribution
   NCORE = 16     (how many cores share the work on an individual orbital)
   PREC = Accurate  (Precision level)
   LREAL = .FALSE. (Accurate forces
   ALGO = FAST      (SCF minimisation algorithm
   ENMAX = 600.00 eV (Plane-wave cutoff) 
   NELM = 500     (Max SCF steps)   
   NELMIN = 5        (Min SCF steps)
   EDIFF = 1E-08     (SCF energy convergence
   ISPIN = 1        (Closed shell DFT)
   GGA = PS     (PBEsol exchange-correlation)
   ADDGRID = TRUE  (Increase grid
   EDIFFG = -1E-07    (Ionic convergence
   NSW = 200         (Max ionic steps
   NBLOCK = 1     (Update XDATCAR, DOSCAR every NBLOCK steps) 
   IBRION = 2     (Algorithm: 0-MD
   ISIF = 7     (Stress/relaxation: 2-Ions, 3-Shape/Ions/V, 7-Vol)
   ISYM = 2     (Symmetry: 0\=none
   2 = GGA
   3 = hybrids) 
   ISMEAR = 0     (Gaussian smearing
   SIGMA = 0.01  (Smearing value in eV
   LORBIT = 11     (PAW radii for projected DOS)
   NEDOS = 1000    (DOSCAR points)
   LMAXMIX = 4       (Mixing cut-off
   ML_ISTART = 0
   ML_LMLFF = TRUE

 POTCAR:    PAW_PBE Pb_d 06Sep2000                
 POTCAR:    PAW_PBE Te 08Apr2002                  
 POTCAR:    PAW_PBE Pb_d 06Sep2000                
   VRHFIN =Pb:                                                                                      
   LEXCH  = PE                                                                                      
   EATOM  =  1661.6185 eV,  122.1255 Ry                                                             
                                                                                                    
   TITEL  = PAW_PBE Pb_d 06Sep2000                                                                  
   LULTRA =        F    use ultrasoft PP ?                                                          
   IUNSCR =        1    unscreen: 0-lin 1-nonlin 2-no                                               
   RPACOR =    2.200    partial core radius                                                         
   POMASS =  207.200; ZVAL   =   14.000    mass and valenz                                          
   RCORE  =    2.500    outmost cutoff radius                                                       
   RWIGS  =    3.260; RWIGS  =    1.725    wigner-seitz radius (au A)                               
   ENMAX  =  237.835; ENMIN  =  178.376 eV                                                          
   ICORE  =        3    local potential                                                             
   LCOR   =        T    correct aug charges                                                         
   LPAW   =        T    paw PP                                                                      
   EAUG   =  391.914                                                                                
   DEXC   =    0.000                                                                                
   RMAX   =    2.565    core radius for proj-oper                                                   
   RAUG   =    1.300    factor for augmentation sphere                                              
   RDEP   =    2.643    radius for radial grids                                                     
   RDEPT  =    2.092    core radius for aug-charge                                                  
                                                                                                    
   Atomic configuration                                                                             
   16 entries                                                                                       
     n  l   j            E        occ.                                                              
     1  0  0.50    -88091.8466   2.0000                                                             
     2  0  0.50    -15753.4197   2.0000                                                             
     2  1  1.50    -13508.1797   6.0000                                                             
     3  0  0.50     -3781.7194   2.0000                                                             
     3  1  1.50     -3138.2529   6.0000                                                             
     3  2  2.50     -2483.2977  10.0000                                                             
     4  0  0.50      -856.2895   2.0000                                                             
     4  1  1.50      -645.4942   6.0000                                                             
     4  2  2.50      -401.8768  10.0000                                                             
     4  3  3.50      -132.9059  14.0000                                                             
     5  0  0.50      -144.0950   2.0000                                                             
     5  1  1.50       -85.7879   6.0000                                                             
     5  2  2.50       -21.1769  10.0000                                                             
     6  0  0.50       -12.0372   2.0000                                                             
     6  1  1.50        -3.4971   2.0000                                                             
     5  3  2.50        -2.7212   0.0000                                                             
   Description                                                                                      
     l       E           TYP  RCUT    TYP  RCUT                                                     
     2    -21.1768523     23  2.500                                                                 
     2      1.3605826     23  2.500                                                                 
     0    -12.0371562     23  2.500                                                                 
     0     13.6058260     23  2.500                                                                 
     1     -3.4971339     23  2.500                                                                 
     1     13.6058260     23  2.500                                                                 
     3     -1.3605826      7  2.500                                                                 
  local pseudopotential read in
  partial core-charges read in
  partial kinetic energy density read in
  atomic valenz-charges read in
  non local Contribution for L=           2  read in
    real space projection operators read in
  non local Contribution for L=           2  read in
    real space projection operators read in
  non local Contribution for L=           0  read in
    real space projection operators read in
  non local Contribution for L=           0  read in
    real space projection operators read in
  non local Contribution for L=           1  read in
    real space projection operators read in
  non local Contribution for L=           1  read in
    real space projection operators read in
    PAW grid and wavefunctions read in

   number of l-projection  operators is LMAX  =           6
   number of lm-projection operators is LMMAX =          18

 POTCAR:    PAW_PBE Te 08Apr2002                  
   VRHFIN =Te: s2p4                                                                                 
   LEXCH  = PE                                                                                      
   EATOM  =   223.2721 eV,   16.4100 Ry                                                             
                                                                                                    
   TITEL  = PAW_PBE Te 08Apr2002                                                                    
   LULTRA =        F    use ultrasoft PP ?                                                          
   IUNSCR =        1    unscreen: 0-lin 1-nonlin 2-no                                               
   RPACOR =    2.200    partial core radius                                                         
   POMASS =  127.600; ZVAL   =    6.000    mass and valenz                                          
   RCORE  =    2.300    outmost cutoff radius                                                       
   RWIGS  =    2.900; RWIGS  =    1.535    wigner-seitz radius (au A)                               
   ENMAX  =  174.982; ENMIN  =  131.236 eV                                                          
   ICORE  =        3    local potential                                                             
   LCOR   =        T    correct aug charges                                                         
   LPAW   =        T    paw PP                                                                      
   EAUG   =  368.792                                                                                
   DEXC   =    0.000                                                                                
   RMAX   =    2.345    core radius for proj-oper                                                   
   RAUG   =    1.300    factor for augmentation sphere                                              
   RDEP   =    2.397    radius for radial grids                                                     
   RDEPT  =    2.174    core radius for aug-charge                                                  
                                                                                                    
   Atomic configuration                                                                             
   13 entries                                                                                       
     n  l   j            E        occ.                                                              
     1  0  0.50    -31621.2075   2.0000                                                             
     2  0  0.50     -4848.7941   2.0000                                                             
     2  1  1.50     -4352.1960   6.0000                                                             
     3  0  0.50      -964.9612   2.0000                                                             
     3  1  1.50      -803.6179   6.0000                                                             
     3  2  2.50      -559.8710  10.0000                                                             
     4  0  0.50      -164.3522   2.0000                                                             
     4  1  1.50      -114.3756   6.0000                                                             
     4  2  2.50       -41.6483  10.0000                                                             
     5  0  0.50       -15.1072   2.0000                                                             
     5  1  0.50        -5.9526   4.0000                                                             
     5  2  1.50        -5.4423   0.0000                                                             
     4  3  2.50        -5.4423   0.0000                                                             
   Description                                                                                      
     l       E           TYP  RCUT    TYP  RCUT                                                     
     0    -15.1072389     23  2.300                                                                 
     0    -16.4678215     23  2.300                                                                 
     1     -5.9526306     23  2.300                                                                 
     1     -2.4873968     23  2.300                                                                 
     2     -5.4423304     23  2.300                                                                 
     3     -1.3605826     23  2.300                                                                 
  local pseudopotential read in
  partial core-charges read in
  partial kinetic energy density read in
  atomic valenz-charges read in
  non local Contribution for L=           0  read in
    real space projection operators read in
  non local Contribution for L=           0  read in
    real space projection operators read in
  non local Contribution for L=           1  read in
    real space projection operators read in
  non local Contribution for L=           1  read in
    real space projection operators read in
  non local Contribution for L=           2  read in
    real space projection operators read in
    PAW grid and wavefunctions read in

   number of l-projection  operators is LMAX  =           5
   number of lm-projection operators is LMMAX =          13

 -----------------------------------------------------------------------------
|                                                                             |
|               ----> ADVICE to this user running VASP <----                  |
|                                                                             |
|     You enforced a specific xc type in the INCAR file but a different       |
|     type was found in the POTCAR file.                                      |
|     I HOPE YOU KNOW WHAT YOU ARE DOING!                                     |
|                                                                             |
 -----------------------------------------------------------------------------

  PAW_PBE Pb_d 06Sep2000                :
 energy of atom  1       EATOM=-1661.6185
 kinetic energy error for atom=    0.0014 (will be added to EATOM!!)
  PAW_PBE Te 08Apr2002                  :
 energy of atom  2       EATOM= -223.2721
 kinetic energy error for atom=    0.0004 (will be added to EATOM!!)


 POSCAR: generated by phonopy
  positions in direct lattice
  velocities in cartesian coordinates
 exchange correlation table for  LEXCH =       14
   RHO(1)=    0.500       N(1)  =     2000
   RHO(2)=  100.500       N(2)  =     4000



--------------------------------------------------------------------------------------------------------


 ion  position               nearest neighbor table
   1  0.250  0.250  0.250-  10 3.22  11 3.22  12 3.22  13 3.22  14 3.22  15 3.22
   2  0.750  0.250  0.250-   9 3.22  11 3.22  12 3.22  13 3.22  14 3.22  16 3.22
   3  0.250  0.750  0.250-   9 3.22  10 3.22  12 3.22  13 3.22  15 3.22  16 3.22
   4  0.750  0.750  0.250-   9 3.22  10 3.22  11 3.22  14 3.22  15 3.22  16 3.22
   5  0.250  0.250  0.750-   9 3.22  10 3.22  11 3.22  14 3.22  15 3.22  16 3.22
   6  0.750  0.250  0.750-   9 3.22  10 3.22  12 3.22  13 3.22  15 3.22  16 3.22
   7  0.250  0.750  0.750-   9 3.22  11 3.22  12 3.22  13 3.22  14 3.22  16 3.22
   8  0.750  0.750  0.750-  10 3.22  11 3.22  12 3.22  13 3.22  14 3.22  15 3.22
   9  0.000  0.000  0.000-   2 3.22   3 3.22   4 3.22   5 3.22   6 3.22   7 3.22
  10  0.500  0.000  0.000-   1 3.22   3 3.22   4 3.22   5 3.22   6 3.22   8 3.22
  11  0.000  0.500  0.000-   1 3.22   2 3.22   4 3.22   5 3.22   7 3.22   8 3.22
  12  0.500  0.500  0.000-   1 3.22   2 3.22   3 3.22   6 3.22   7 3.22   8 3.22
  13  0.000  0.000  0.500-   1 3.22   2 3.22   3 3.22   6 3.22   7 3.22   8 3.22
  14  0.500  0.000  0.500-   1 3.22   2 3.22   4 3.22   5 3.22   7 3.22   8 3.22
  15  0.000  0.500  0.500-   1 3.22   3 3.22   4 3.22   5 3.22   6 3.22   8 3.22
  16  0.500  0.500  0.500-   2 3.22   3 3.22   4 3.22   5 3.22   6 3.22   7 3.22

  LATTYP: Found a face centered cubic cell.
 ALAT       =    12.8850331928
  
  Lattice vectors:
  
 A1 = (   0.0000000000,   6.4425165964,   6.4425165964)
 A2 = (   6.4425165964,   0.0000000000,   6.4425165964)
 A3 = (   6.4425165964,   6.4425165964,   0.0000000000)


Analysis of symmetry for initial positions (statically):
=====================================================================
 Subroutine PRICEL returns following result:
 
  LATTYP: Found a face centered cubic cell.
 ALAT       =     6.4425165964
  
  Lattice vectors:
  
 A1 = (   0.0000000000,   3.2212582982,   3.2212582982)
 A2 = (   3.2212582982,   0.0000000000,   3.2212582982)
 A3 = (   3.2212582982,   3.2212582982,   0.0000000000)
 
   8 primitive cells build up your supercell.
 

 Routine SETGRP: Setting up the symmetry group for a 
 face centered cubic supercell.


 Subroutine GETGRP returns: Found 48 space group operations
 (whereof 48 operations were pure point group operations)
 out of a pool of 48 trial point group operations.


The static configuration has the point symmetry O_h .


Analysis of symmetry for dynamics (positions and initial velocities):
=====================================================================
 Subroutine PRICEL returns following result:
 
  LATTYP: Found a face centered cubic cell.
 ALAT       =     6.4425165964
  
  Lattice vectors:
  
 A1 = (   0.0000000000,   3.2212582982,   3.2212582982)
 A2 = (   3.2212582982,   0.0000000000,   3.2212582982)
 A3 = (   3.2212582982,   3.2212582982,   0.0000000000)
 
   8 primitive cells build up your supercell.
 

 Routine SETGRP: Setting up the symmetry group for a 
 face centered cubic supercell.


 Subroutine GETGRP returns: Found 48 space group operations
 (whereof 48 operations were pure point group operations)
 out of a pool of 48 trial point group operations.


The dynamic configuration has the point symmetry O_h .


 Subroutine INISYM returns: Found 48 space group operations
 (whereof 48 operations are pure point group operations),
 and found     8 'primitive' translations


----------------------------------------------------------------------------------------

                                     Primitive cell                                     

  volume of cell :      66.8508

  direct lattice vectors                    reciprocal lattice vectors
     0.000000000  3.221258298  3.221258298    -0.155218847  0.155218847  0.155218847
     3.221258298  0.000000000  3.221258298     0.155218847 -0.155218847  0.155218847
     3.221258298  3.221258298  0.000000000     0.155218847  0.155218847 -0.155218847

  length of vectors
     4.555547173  4.555547173  4.555547173     0.268846930  0.268846930  0.268846930

  position of ions in fractional coordinates (direct lattice)
     0.500000000  0.500000000  0.500000000
     0.000000000  0.000000000  0.000000000

  ion indices of the primitive-cell ions
   primitive index   ion index
                 1           1
                 2           9

----------------------------------------------------------------------------------------



 KPOINTS: Regular k-point mesh                    

Automatic generation of k-mesh.
 Grid dimensions read from file:
 generate k-points for:    6    6    6

 Generating k-lattice:

  Cartesian coordinates                     Fractional coordinates (reciprocal lattice)
    -0.012934904  0.012934904  0.012934904     0.166666667 -0.000000000  0.000000000
     0.012934904 -0.012934904  0.012934904    -0.000000000  0.166666667 -0.000000000
     0.012934904  0.012934904 -0.012934904     0.000000000  0.000000000  0.166666667

  Length of vectors
     0.022403911  0.022403911  0.022403911

  Shift w.r.t. Gamma in fractional coordinates (k-lattice)
     0.000000000  0.000000000  0.000000000

 
 Subroutine IBZKPT returns following result:
 ===========================================
 
 Found     16 irreducible k-points:
 
 Following reciprocal coordinates:
            Coordinates               Weight
  0.000000  0.000000  0.000000      1.000000
  0.166667  0.000000  0.000000      8.000000
  0.333333  0.000000  0.000000      8.000000
  0.500000  0.000000  0.000000      4.000000
  0.166667  0.166667  0.000000      6.000000
  0.333333  0.166667  0.000000     24.000000
  0.500000  0.166667  0.000000     24.000000
 -0.333333  0.166667  0.000000     24.000000
 -0.166667  0.166667  0.000000     12.000000
  0.333333  0.333333  0.000000      6.000000
  0.500000  0.333333  0.000000     24.000000
 -0.333333  0.333333  0.000000     12.000000
  0.500000  0.500000  0.000000      3.000000
  0.500000  0.333333  0.166667     24.000000
 -0.333333  0.333333  0.166667     24.000000
 -0.333333  0.500000  0.166667     12.000000
 
 Following cartesian coordinates:
            Coordinates               Weight
  0.000000  0.000000  0.000000      1.000000
 -0.012935  0.012935  0.012935      8.000000
 -0.025870  0.025870  0.025870      8.000000
 -0.038805  0.038805  0.038805      4.000000
  0.000000  0.000000  0.025870      6.000000
 -0.012935  0.012935  0.038805     24.000000
 -0.025870  0.025870  0.051740     24.000000
  0.038805 -0.038805 -0.012935     24.000000
  0.025870 -0.025870  0.000000     12.000000
  0.000000  0.000000  0.051740      6.000000
 -0.012935  0.012935  0.064675     24.000000
  0.051740 -0.051740  0.000000     12.000000
  0.000000  0.000000  0.077609      3.000000
  0.000000  0.025870  0.051740     24.000000
  0.064675 -0.038805 -0.012935     24.000000
  0.077609 -0.051740  0.000000     12.000000
 


--------------------------------------------------------------------------------------------------------




 Dimension of arrays:
   k-points           NKPTS =     16   k-points in BZ     NKDIM =     16   number of bands    NBANDS=     96
   number of dos      NEDOS =   1000   number of ions     NIONS =     16
   non local maximal  LDIM  =      6   non local SUM 2l+1 LMDIM =     18
   total plane-waves  NPLWV = 512000
   max r-space proj   IRMAX =      1   max aug-charges    IRDMAX= 445608
   dimension x,y,z NGX =    80 NGY =   80 NGZ =   80
   dimension x,y,z NGXF=   160 NGYF=  160 NGZF=  160
   support grid    NGXF=   320 NGYF=  320 NGZF=  320
   ions per type =               8   8
   NGX,Y,Z   is equivalent  to a cutoff of  14.60, 14.60, 14.60 a.u.
   NGXF,Y,Z  is equivalent  to a cutoff of  29.19, 29.19, 29.19 a.u.

 SYSTEM =  unknown system                          
 POSCAR =  generated by phonopy                    

 Startparameter for this run:
   NWRITE =      2    write-flag & timer
   PREC   = accura    normal or accurate (medium, high low for compatibility)
   ISTART =      0    job   : 0-new  1-cont  2-samecut
   ICHARG =      2    charge: 1-file 2-atom 10-const
   ISPIN  =      1    spin polarized calculation?
   LNONCOLLINEAR =      F non collinear calculations
   LSORBIT =      F    spin-orbit coupling
   INIWAV =      1    electr: 0-lowe 1-rand  2-diag
   LASPH  =      F    aspherical Exc in radial PAW
 Electronic Relaxation 1
   ENCUT  =  600.0 eV  44.10 Ry    6.64 a.u.  18.20 18.20 18.20*2*pi/ulx,y,z
   ENINI  =  600.0     initial cutoff
   ENAUG  =  391.9 eV  augmentation charge cutoff
   NELM   =    500;   NELMIN=  5; NELMDL=  0     # of ELM steps 
   EDIFF  = 0.1E-07   stopping-criterion for ELM
   LREAL  =      F    real-space projection
   NLSPLINE    = F    spline interpolate recip. space projectors
   LCOMPAT=      F    compatible to vasp.4.4
   GGA_COMPAT  = T    GGA compatible to vasp.4.4-vasp.4.6
   LMAXPAW     = -100 max onsite density
   LMAXMIX     =    4 max onsite mixed and CHGCAR
   VOSKOWN=      0    Vosko Wilk Nusair interpolation
   ROPT   =    0.00000   0.00000
 Ionic relaxation
   EDIFFG = -.1E-06   stopping-criterion for IOM
   NSW    =    200    number of steps for IOM
   NBLOCK =      1;   KBLOCK =    200    inner block; outer block 
   IBRION =      2    ionic relax: 0-MD 1-quasi-New 2-CG
   NFREE  =      1    steps in history (QN), initial steepest desc. (CG)
   ISIF   =      7    stress and relaxation
   IWAVPR =     11    prediction:  0-non 1-charg 2-wave 3-comb
   ISYM   =      2    0-nonsym 1-usesym 2-fastsym
   LCORR  =      T    Harris-Foulkes like correction to forces

   POTIM  = 0.5000    time-step for ionic-motion
   TEIN   =    0.0    initial temperature
   TEBEG  =    0.0;   TEEND  =   0.0 temperature during run
   SMASS  =  -3.00    Nose mass-parameter (am)
   estimated Nose-frequenzy (Omega)   =  0.10E-29 period in steps = 0.13E+47 mass=  -0.190E-26a.u.
   SCALEE = 1.0000    scale energy and forces
   NPACO  =    256;   APACO  = 10.0  distance and # of slots for P.C.
   PSTRESS=    0.0 pullay stress

  Mass of Ions in am
   POMASS = 207.20127.60
  Ionic Valenz
   ZVAL   =  14.00  6.00
  Atomic Wigner-Seitz radii
   RWIGS  =  -1.00 -1.00
  virtual crystal weights 
   VCA    =   1.00  1.00
   NELECT =     160.0000    total number of electrons
   NUPDOWN=      -1.0000    fix difference up-down

 DOS related values:
   EMIN   =  10.00;   EMAX   =-10.00  energy-range for DOS
   EFERMI =   0.00
   ISMEAR =     0;   SIGMA  =   0.01  broadening in eV -4-tet -1-fermi 0-gaus

 Electronic relaxation 2 (details)
   IALGO  =     68    algorithm
   LDIAG  =      T    sub-space diagonalisation (order eigenvalues)
   LSUBROT=      F    optimize rotation matrix (better conditioning)
   TURBO    =      0    0=normal 1=particle mesh
   IRESTART =      0    0=no restart 2=restart with 2 vectors
   NREBOOT  =      0    no. of reboots
   NMIN     =      0    reboot dimension
   EREF     =   0.00    reference energy to select bands
   IMIX   =      4    mixing-type and parameters
     AMIX     =   0.40;   BMIX     =  1.00
     AMIX_MAG =   1.60;   BMIX_MAG =  1.00
     AMIN     =   0.10
     WC   =   100.;   INIMIX=   1;  MIXPRE=   1;  MAXMIX= -45

 Intra band minimization:
   WEIMIN = 0.0010     energy-eigenvalue tresh-hold
   EBREAK =  0.26E-10  absolut break condition
   DEPER  =   0.30     relativ break condition  

   TIME   =   0.40     timestep for ELM

  volume/ion in A,a.u.               =      33.43       225.57
  Fermi-wavevector in a.u.,A,eV,Ry     =   1.094921  2.069100 16.311359  1.198851
  Thomas-Fermi vector in A             =   2.231234

 Write flags
   LWAVE        =      T    write WAVECAR
   LDOWNSAMPLE  =      F    k-point downsampling of WAVECAR
   LCHARG       =      T    write CHGCAR
   LVTOT        =      F    write LOCPOT, total local potential
   LVHAR        =      F    write LOCPOT, Hartree potential only
   LELF         =      F    write electronic localiz. function (ELF)
   LORBIT       =     11    0 simple, 1 ext, 2 COOP (PROOUT), +10 PAW based schemes


 Dipole corrections
   LMONO  =      F    monopole corrections only (constant potential shift)
   LDIPOL =      F    correct potential (dipole corrections)
   IDIPOL =      0    1-x, 2-y, 3-z, 4-all directions 
   EPSILON=  1.0000000 bulk dielectric constant

 Core level calculations are selected ICORELEVEL =  1
 Exchange correlation treatment:
   GGA     =    PS    GGA type
   LEXCH   =    14    internal setting for exchange type
   LIBXC   =     F    Libxc                    
   VOSKOWN =     0    Vosko Wilk Nusair interpolation
   LHFCALC =     F    Hartree Fock is set to
   LHFONE  =     F    Hartree Fock one center treatment
   AEXX    =    0.0000 exact exchange contribution

 Linear response parameters
   LEPSILON=     F    determine dielectric tensor
   LRPA    =     F    only Hartree local field effects (RPA)
   LNABLA  =     F    use nabla operator in PAW spheres
   LVEL    =     F    velocity operator in full k-point grid
   CSHIFT  =0.1000    complex shift for real part using Kramers Kronig
   OMEGAMAX=  -1.0    maximum frequency
   DEG_THRESHOLD= 0.2000000E-02 threshold for treating states as degnerate
   RTIME   =   -0.100 relaxation time in fs
  (WPLASMAI=    0.000 imaginary part of plasma frequency in eV, 0.658/RTIME)
   DFIELD  = 0.0000000 0.0000000 0.0000000 field for delta impulse in time

  Optional k-point grid parameters
   LKPOINTS_OPT  =     F    use optional k-point grid
   KPOINTS_OPT_MODE=     1    mode for optional k-point grid

 Orbital magnetization related:
   ORBITALMAG=     F  switch on orbital magnetization
   LCHIMAG   =     F  perturbation theory with respect to B field
   DQ        =  0.001000  dq finite difference perturbation B field
   LLRAUG    =     F  two centre corrections for induced B field



--------------------------------------------------------------------------------------------------------


 conjugate gradient relaxation of ions
 charge density and potential will be updated during run
 non-spin polarized calculation
 RMM-DIIS sequential band-by-band and
  variant of blocked Davidson during initial phase
 perform sub-space diagonalisation
    before iterative eigenvector-optimisation
 modified Broyden-mixing scheme, WC =      100.0
 initial mixing is a Kerker type mixing with AMIX =  0.4000 and BMIX =      1.0000
 Hartree-type preconditioning will be used
 using additional bands           16
 reciprocal scheme for non local part
 use partial core corrections
 calculate Harris-corrections to forces   (improved forces if not selfconsistent)
 use gradient corrections 
 use of overlap-Matrix (Vanderbilt PP)
 Gauss-broadening in eV      SIGMA  =   0.01


--------------------------------------------------------------------------------------------------------


  energy-cutoff  :      600.00
  volume of cell :      534.81
      direct lattice vectors                 reciprocal lattice vectors
     0.000000000  6.442516596  6.442516596    -0.077609424  0.077609424  0.077609424
     6.442516596  0.000000000  6.442516596     0.077609424 -0.077609424  0.077609424
     6.442516596  6.442516596  0.000000000     0.077609424  0.077609424 -0.077609424

  length of vectors
     9.111094346  9.111094346  9.111094346     0.134423465  0.134423465  0.134423465



 k-points in units of 2pi/SCALE and weight: Regular k-point mesh                    
   0.00000000  0.00000000  0.00000000       0.005
  -0.01293490  0.01293490  0.01293490       0.037
  -0.02586981  0.02586981  0.02586981       0.037
  -0.03880471  0.03880471  0.03880471       0.019
   0.00000000  0.00000000  0.02586981       0.028
  -0.01293490  0.01293490  0.03880471       0.111
  -0.02586981  0.02586981  0.05173962       0.111
   0.03880471 -0.03880471 -0.01293490       0.111
   0.02586981 -0.02586981  0.00000000       0.056
   0.00000000  0.00000000  0.05173962       0.028
  -0.01293490  0.01293490  0.06467452       0.111
   0.05173962 -0.05173962  0.00000000       0.056
   0.00000000  0.00000000  0.07760942       0.014
   0.00000000  0.02586981  0.05173962       0.111
   0.06467452 -0.03880471 -0.01293490       0.111
   0.07760942 -0.05173962  0.00000000       0.056

 k-points in reciprocal lattice and weights: Regular k-point mesh                    
   0.00000000  0.00000000  0.00000000       0.005
   0.16666667  0.00000000  0.00000000       0.037
   0.33333333  0.00000000  0.00000000       0.037
   0.50000000  0.00000000  0.00000000       0.019
   0.16666667  0.16666667  0.00000000       0.028
   0.33333333  0.16666667  0.00000000       0.111
   0.50000000  0.16666667  0.00000000       0.111
  -0.33333333  0.16666667  0.00000000       0.111
  -0.16666667  0.16666667  0.00000000       0.056
   0.33333333  0.33333333  0.00000000       0.028
   0.50000000  0.33333333  0.00000000       0.111
  -0.33333333  0.33333333  0.00000000       0.056
   0.50000000  0.50000000  0.00000000       0.014
   0.50000000  0.33333333  0.16666667       0.111
  -0.33333333  0.33333333  0.16666667       0.111
  -0.33333333  0.50000000  0.16666667       0.056

 position of ions in fractional coordinates (direct lattice) 
   0.25000000  0.25000000  0.25000000
   0.75000000  0.25000000  0.25000000
   0.25000000  0.75000000  0.25000000
   0.75000000  0.75000000  0.25000000
   0.25000000  0.25000000  0.75000000
   0.75000000  0.25000000  0.75000000
   0.25000000  0.75000000  0.75000000
   0.75000000  0.75000000  0.75000000
   0.00000000  0.00000000  0.00000000
   0.50000000  0.00000000  0.00000000
   0.00000000  0.50000000  0.00000000
   0.50000000  0.50000000  0.00000000
   0.00000000  0.00000000  0.50000000
   0.50000000  0.00000000  0.50000000
   0.00000000  0.50000000  0.50000000
   0.50000000  0.50000000  0.50000000

 position of ions in cartesian coordinates  (Angst):
   3.22125830  3.22125830  3.22125830
   3.22125830  6.44251660  6.44251660
   6.44251660  3.22125830  6.44251660
   6.44251660  6.44251660  9.66377489
   6.44251660  6.44251660  3.22125830
   6.44251660  9.66377489  6.44251660
   9.66377489  6.44251660  6.44251660
   9.66377489  9.66377489  9.66377489
   0.00000000  0.00000000  0.00000000
   0.00000000  3.22125830  3.22125830
   3.22125830  0.00000000  3.22125830
   3.22125830  3.22125830  6.44251660
   3.22125830  3.22125830  0.00000000
   3.22125830  6.44251660  3.22125830
   6.44251660  3.22125830  3.22125830
   6.44251660  6.44251660  6.44251660



--------------------------------------------------------------------------------------------------------


 k-point   1 :   0.0000 0.0000 0.0000  plane waves:   17933
 k-point   2 :   0.1667 0.0000 0.0000  plane waves:   17847
 k-point   3 :   0.3333 0.0000 0.0000  plane waves:   17832
 k-point   4 :   0.5000 0.0000 0.0000  plane waves:   17784
 k-point   5 :   0.1667 0.1667 0.0000  plane waves:   17854
 k-point   6 :   0.3333 0.1667 0.0000  plane waves:   17823
 k-point   7 :   0.5000 0.1667 0.0000  plane waves:   17856
 k-point   8 :  -0.3333 0.1667 0.0000  plane waves:   17855
 k-point   9 :  -0.1667 0.1667 0.0000  plane waves:   17824
 k-point  10 :   0.3333 0.3333 0.0000  plane waves:   17838
 k-point  11 :   0.5000 0.3333 0.0000  plane waves:   17842
 k-point  12 :  -0.3333 0.3333 0.0000  plane waves:   17864
 k-point  13 :   0.5000 0.5000 0.0000  plane waves:   17886
 k-point  14 :   0.5000 0.3333 0.1667  plane waves:   17827
 k-point  15 :  -0.3333 0.3333 0.1667  plane waves:   17850
 k-point  16 :  -0.3333 0.5000 0.1667  plane waves:   17862

 maximum and minimum number of plane-waves per node :      1139     1094

 maximum number of plane-waves:     17933
 maximum index in each direction: 
   IXMAX=   18   IYMAX=   18   IZMAX=   18
   IXMIN=  -18   IYMIN=  -18   IZMIN=  -18


 parallel 3D FFT for wavefunctions:
    minimum data exchange during FFTs selected (reduces bandwidth)
 parallel 3D FFT for charge:
    minimum data exchange during FFTs selected (reduces bandwidth)


 total amount of memory used by VASP MPI-rank0    49771. kBytes
=======================================================================

   base      :      30000. kBytes
   nonl-proj :       5486. kBytes
   fftplans  :       6553. kBytes
   grid      :       4179. kBytes
   one-center:         15. kBytes
   wavefun   :       3538. kBytes

     INWAV:  cpu time      0.0018: real time      0.0019
 Broyden mixing: mesh for mixing (old mesh)
   NGX = 37   NGY = 37   NGZ = 37
  (NGX  =160   NGY  =160   NGZ  =160)
  gives a total of  50653 points

 initial charge density was supplied:
 charge density of overlapping atoms calculated
 number of electron     160.0000000 magnetization 
 keeping initial charge density in first step


--------------------------------------------------------------------------------------------------------


 Maximum index for augmentation-charges         6343 (set IRDMAX)


--------------------------------------------------------------------------------------------------------


 First call to EWALD:  gamma=   0.218
 Maximum number of real-space cells 3x 3x 3
 Maximum number of reciprocal cells 3x 3x 3

    FEWALD:  cpu time      0.0049: real time      0.0051
    OFIELD:  cpu time      0.0003: real time      0.0003

  ML FORCE on cell =-STRESS in cart. coord. units (eV/cell)
  Direction    XX          YY          ZZ          XY          YZ          ZX
  --------------------------------------------------------------------------------------
  Total:      0.00000     0.00000     0.00000     0.00000     0.00000     0.00000
  in kB       0.00000     0.00000     0.00000     0.00000     0.00000     0.00000
  external pressure =        0.00 kB  Pullay stress =        0.00 kB

  kinetic pressure (ideal gas correction) =      0.00 kB
  total pressure  =      0.00 kB
  Total+kin.     0.000       0.000       0.000       0.000       0.000       0.000
  volume of cell :      534.81
      direct lattice vectors                 reciprocal lattice vectors
     0.000000000  6.442516596  6.442516596    -0.077609424  0.077609424  0.077609424
     6.442516596  0.000000000  6.442516596     0.077609424 -0.077609424  0.077609424
     6.442516596  6.442516596  0.000000000     0.077609424  0.077609424 -0.077609424

  length of vectors
     9.111094346  9.111094346  9.111094346     0.134423465  0.134423465  0.134423465


  POSITION                                       TOTAL-FORCE (eV/Angst) (ML)
 -----------------------------------------------------------------------------------
      3.22126      3.22126      3.22126         0.000000      0.000000      0.000000
      3.22126      6.44252      6.44252         0.000000      0.000000      0.000000
      6.44252      3.22126      6.44252         0.000000      0.000000      0.000000
      6.44252      6.44252      9.66377         0.000000      0.000000      0.000000
      6.44252      6.44252      3.22126         0.000000      0.000000      0.000000
      6.44252      9.66377      6.44252         0.000000      0.000000      0.000000
      9.66377      6.44252      6.44252         0.000000      0.000000      0.000000
      9.66377      9.66377      9.66377         0.000000      0.000000      0.000000
      0.00000      0.00000      0.00000         0.000000      0.000000      0.000000
      0.00000      3.22126      3.22126         0.000000      0.000000      0.000000
      3.22126      0.00000      3.22126         0.000000      0.000000      0.000000
      3.22126      3.22126      6.44252         0.000000      0.000000      0.000000
      3.22126      3.22126      0.00000         0.000000      0.000000      0.000000
      3.22126      6.44252      3.22126         0.000000      0.000000      0.000000
      6.44252      3.22126      3.22126         0.000000      0.000000      0.000000
      6.44252      6.44252      6.44252         0.000000      0.000000      0.000000
 -----------------------------------------------------------------------------------
    total drift:                                0.000000      0.000000      0.000000


--------------------------------------------------------------------------------------------------------



  ML FREE ENERGIE OF THE ION-ELECTRON SYSTEM (eV)
  ---------------------------------------------------
  free  energy ML TOTEN  =         0.00000000 eV

  ML energy  without entropy=        0.00000000  ML energy(sigma->0) =        0.00000000



--------------------------------------- Iteration      1(   1)  ---------------------------------------


    POTLOK:  cpu time      0.0520: real time      0.1078
    SETDIJ:  cpu time      0.2439: real time      0.2440
     EDDAV:  cpu time      1.8210: real time      1.9101
       DOS:  cpu time      0.0044: real time      0.0044
    --------------------------------------------
      LOOP:  cpu time      2.1213: real time      2.2662

 eigenvalue-minimisations  :  3072
 total energy-change (2. order) : 0.1874487E+04  (-0.7397188E+04)
 number of electron     160.0000000 magnetization 
 augmentation part      160.0000000 magnetization 

 Free energy of the ion-electron system (eV)
  ---------------------------------------------------
  alpha Z        PSCENC =       290.84593586
  Ewald energy   TEWEN  =    -11146.65336837
  -Hartree energ DENC   =     -4022.51157267
  -exchange      EXHF   =         0.00000000
  -V(xc)+E(xc)   XCENC  =        91.59616511
  PAW double counting   =     13132.28373248   -12699.49664494
  entropy T*S    EENTRO =        -0.00082741
  eigenvalues    EBANDS =      1144.34782012
  atomic energy  EATOM  =     15084.07529148
  Solvation  Ediel_sol  =         0.00000000
  ---------------------------------------------------
  free energy    TOTEN  =      1874.48653167 eV

  energy without entropy =     1874.48735907  energy(sigma->0) =     1874.48694537


--------------------------------------------------------------------------------------------------------




--------------------------------------- Iteration      1(   2)  ---------------------------------------


     EDDAV:  cpu time      1.7210: real time      1.7366
       DOS:  cpu time      0.0011: real time      0.0011
    --------------------------------------------
      LOOP:  cpu time      1.7221: real time      1.7377

 eigenvalue-minimisations  :  3080
 total energy-change (2. order) :-0.1663159E+04  (-0.1618887E+04)
 number of electron     160.0000000 magnetization 
 augmentation part      160.0000000 magnetization 

 Free energy of the ion-electron system (eV)
  ---------------------------------------------------
  alpha Z        PSCENC =       290.84593586
  Ewald energy   TEWEN  =    -11146.65336837
  -Hartree energ DENC   =     -4022.51157267
  -exchange      EXHF   =         0.00000000
  -V(xc)+E(xc)   XCENC  =        91.59616511
  PAW double counting   =     13132.28373248   -12699.49664494
  entropy T*S    EENTRO =        -0.00010515
  eigenvalues    EBANDS =      -518.81167596
  atomic energy  EATOM  =     15084.07529148
  Solvation  Ediel_sol  =         0.00000000
  ---------------------------------------------------
  free energy    TOTEN  =       211.32775784 eV

  energy without entropy =      211.32786299  energy(sigma->0) =      211.32781041


--------------------------------------------------------------------------------------------------------




--------------------------------------- Iteration      1(   3)  ---------------------------------------


     EDDAV:  cpu time      1.9927: real time      2.0089
       DOS:  cpu time      0.0007: real time      0.0007
    --------------------------------------------
      LOOP:  cpu time      1.9934: real time      2.0096

 eigenvalue-minimisations  :  3736
 total energy-change (2. order) :-0.2575840E+03  (-0.2444506E+03)
 number of electron     160.0000000 magnetization 
 augmentation part      160.0000000 magnetization 

 Free energy of the ion-electron system (eV)
  ---------------------------------------------------
  alpha Z        PSCENC =       290.84593586
  Ewald energy   TEWEN  =    -11146.65336837
  -Hartree energ DENC   =     -4022.51157267
  -exchange      EXHF   =         0.00000000
  -V(xc)+E(xc)   XCENC  =        91.59616511
  PAW double counting   =     13132.28373248   -12699.49664494
  entropy T*S    EENTRO =        -0.00000000
  eigenvalues    EBANDS =      -776.39577092
  atomic energy  EATOM  =     15084.07529148
  Solvation  Ediel_sol  =         0.00000000
  ---------------------------------------------------
  free energy    TOTEN  =       -46.25623197 eV

  energy without entropy =      -46.25623197  energy(sigma->0) =      -46.25623197


--------------------------------------------------------------------------------------------------------




--------------------------------------- Iteration      1(   4)  ---------------------------------------


     EDDAV:  cpu time      1.9797: real time      1.9972
       DOS:  cpu time      0.0025: real time      0.0025
    --------------------------------------------
      LOOP:  cpu time      1.9822: real time      1.9998

 eigenvalue-minimisations  :  3712
 total energy-change (2. order) :-0.1980584E+02  (-0.1945459E+02)
 number of electron     160.0000000 magnetization 
 augmentation part      160.0000000 magnetization 

 Free energy of the ion-electron system (eV)
  ---------------------------------------------------
  alpha Z        PSCENC =       290.84593586
  Ewald energy   TEWEN  =    -11146.65336837
  -Hartree energ DENC   =     -4022.51157267
  -exchange      EXHF   =         0.00000000
  -V(xc)+E(xc)   XCENC  =        91.59616511
  PAW double counting   =     13132.28373248   -12699.49664494
  entropy T*S    EENTRO =        -0.00000000
  eigenvalues    EBANDS =      -796.20160872
  atomic energy  EATOM  =     15084.07529148
  Solvation  Ediel_sol  =         0.00000000
  ---------------------------------------------------
  free energy    TOTEN  =       -66.06206977 eV

  energy without entropy =      -66.06206977  energy(sigma->0) =      -66.06206977


--------------------------------------------------------------------------------------------------------




--------------------------------------- Iteration      1(   5)  ---------------------------------------


     EDDAV:  cpu time      2.0099: real time      2.0217
       DOS:  cpu time      0.0006: real time      0.0006
    CHARGE:  cpu time      0.6101: real time      0.6107
    MIXING:  cpu time      0.0076: real time      0.0080
    --------------------------------------------
      LOOP:  cpu time      2.6281: real time      2.6409

 eigenvalue-minimisations  :  3808
 total energy-change (2. order) :-0.9120871E+00  (-0.9091669E+00)
 number of electron     160.0000002 magnetization 
 augmentation part       34.6888605 magnetization 

 Broyden mixing:
  rms(total) = 0.97850E+00    rms(broyden)= 0.97850E+00
  rms(prec ) = 0.11888E+01
  weight for this iteration     100.00

 Free energy of the ion-electron system (eV)
  ---------------------------------------------------
  alpha Z        PSCENC =       290.84593586
  Ewald energy   TEWEN  =    -11146.65336837
  -Hartree energ DENC   =     -4022.51157267
  -exchange      EXHF   =         0.00000000
  -V(xc)+E(xc)   XCENC  =        91.59616511
  PAW double counting   =     13132.28373248   -12699.49664494
  entropy T*S    EENTRO =        -0.00000000
  eigenvalues    EBANDS =      -797.11369585
  atomic energy  EATOM  =     15084.07529148
  Solvation  Ediel_sol  =         0.00000000
  ---------------------------------------------------
  free energy    TOTEN  =       -66.97415690 eV

  energy without entropy =      -66.97415690  energy(sigma->0) =      -66.97415690


--------------------------------------------------------------------------------------------------------




--------------------------------------- Iteration      1(   6)  ---------------------------------------


    POTLOK:  cpu time      0.0549: real time      0.0712
    SETDIJ:  cpu time      0.2402: real time      0.2402
    EDDIAG:  cpu time      0.4688: real time      0.4695
  RMM-DIIS:  cpu time      1.5676: real time      1.5687
    ORTHCH:  cpu time      0.0424: real time      0.0424
       DOS:  cpu time      0.0008: real time      0.0008
    CHARGE:  cpu time      0.5950: real time      0.5954
    MIXING:  cpu time      0.0036: real time      0.0036
    --------------------------------------------
      LOOP:  cpu time      2.9732: real time      2.9916

 eigenvalue-minimisations  :  3125
 total energy-change (2. order) : 0.8707030E+00  (-0.1664924E+00)
 number of electron     160.0000002 magnetization 
 augmentation part       34.8935631 magnetization 

 Broyden mixing:
  rms(total) = 0.57005E+00    rms(broyden)= 0.57005E+00
  rms(prec ) = 0.63694E+00
  weight for this iteration     100.00

 eigenvalues of (default mixing * dielectric matrix)
  average eigenvalue GAMMA=   2.3106
  2.3106

 Free energy of the ion-electron system (eV)
  ---------------------------------------------------
  alpha Z        PSCENC =       290.84593586
  Ewald energy   TEWEN  =    -11146.65336837
  -Hartree energ DENC   =     -4000.12140063
  -exchange      EXHF   =         0.00000000
  -V(xc)+E(xc)   XCENC  =        91.61013346
  PAW double counting   =     13688.14813093   -13252.03830664
  entropy T*S    EENTRO =        -0.00000000
  eigenvalues    EBANDS =      -821.96987000
  atomic energy  EATOM  =     15084.07529148
  Solvation  Ediel_sol  =         0.00000000
  ---------------------------------------------------
  free energy    TOTEN  =       -66.10345390 eV

  energy without entropy =      -66.10345390  energy(sigma->0) =      -66.10345390


--------------------------------------------------------------------------------------------------------




--------------------------------------- Iteration      1(   7)  ---------------------------------------


    POTLOK:  cpu time      0.0719: real time      0.0721
    SETDIJ:  cpu time      0.2405: real time      0.2405
    EDDIAG:  cpu time      0.4614: real time      0.4614
  RMM-DIIS:  cpu time      1.6968: real time      1.6975
    ORTHCH:  cpu time      0.0424: real time      0.0424
       DOS:  cpu time      0.0007: real time      0.0007
    CHARGE:  cpu time      0.5948: real time      0.5956
    MIXING:  cpu time      0.0014: real time      0.0014
    --------------------------------------------
      LOOP:  cpu time      3.1098: real time      3.1117

 eigenvalue-minimisations  :  3291
 total energy-change (2. order) :-0.4474173E-02  (-0.1819534E+00)
 number of electron     160.0000002 magnetization 
 augmentation part       35.0482432 magnetization 

 Broyden mixing:
  rms(total) = 0.15603E+00    rms(broyden)= 0.15603E+00
  rms(prec ) = 0.19651E+00
  weight for this iteration     100.00

 eigenvalues of (default mixing * dielectric matrix)
  average eigenvalue GAMMA=   2.0762
  1.5688  2.5837

 Free energy of the ion-electron system (eV)
  ---------------------------------------------------
  alpha Z        PSCENC =       290.84593586
  Ewald energy   TEWEN  =    -11146.65336837
  -Hartree energ DENC   =     -3984.57532122
  -exchange      EXHF   =         0.00000000
  -V(xc)+E(xc)   XCENC  =        91.83768628
  PAW double counting   =     14526.96352991   -14089.19890285
  entropy T*S    EENTRO =        -0.00000000
  eigenvalues    EBANDS =      -839.40277917
  atomic energy  EATOM  =     15084.07529148
  Solvation  Ediel_sol  =         0.00000000
  ---------------------------------------------------
  free energy    TOTEN  =       -66.10792807 eV

  energy without entropy =      -66.10792807  energy(sigma->0) =      -66.10792807


--------------------------------------------------------------------------------------------------------




--------------------------------------- Iteration      1(   8)  ---------------------------------------


    POTLOK:  cpu time      0.0613: real time      0.0725
    SETDIJ:  cpu time      0.2397: real time      0.2397
    EDDIAG:  cpu time      0.4606: real time      0.4607
  RMM-DIIS:  cpu time      1.5597: real time      1.5604
    ORTHCH:  cpu time      0.0419: real time      0.0419
       DOS:  cpu time      0.0007: real time      0.0007
    CHARGE:  cpu time      0.5955: real time      0.5960
    MIXING:  cpu time      0.0014: real time      0.0014
    --------------------------------------------
      LOOP:  cpu time      2.9607: real time      2.9732

 eigenvalue-minimisations  :  3160
 total energy-change (2. order) : 0.2043061E-01  (-0.3854342E-01)
 number of electron     160.0000002 magnetization 
 augmentation part       34.8836167 magnetization 

 Broyden mixing:
  rms(total) = 0.46720E-01    rms(broyden)= 0.46720E-01
  rms(prec ) = 0.81780E-01
  weight for this iteration     100.00

 eigenvalues of (default mixing * dielectric matrix)
  average eigenvalue GAMMA=   1.7609
  2.3769  1.4529  1.4529

 Free energy of the ion-electron system (eV)
  ---------------------------------------------------
  alpha Z        PSCENC =       290.84593586
  Ewald energy   TEWEN  =    -11146.65336837
  -Hartree energ DENC   =     -3995.06081645
  -exchange      EXHF   =         0.00000000
  -V(xc)+E(xc)   XCENC  =        92.15223980
  PAW double counting   =     14897.61427395   -14462.60718765
  entropy T*S    EENTRO =        -0.00000000
  eigenvalues    EBANDS =      -826.45386608
  atomic energy  EATOM  =     15084.07529148
  Solvation  Ediel_sol  =         0.00000000
  ---------------------------------------------------
  free energy    TOTEN  =       -66.08749746 eV

  energy without entropy =      -66.08749746  energy(sigma->0) =      -66.08749746


--------------------------------------------------------------------------------------------------------




--------------------------------------- Iteration      1(   9)  ---------------------------------------


    POTLOK:  cpu time      0.0560: real time      0.0727
    SETDIJ:  cpu time      0.2395: real time      0.2396
    EDDIAG:  cpu time      0.4607: real time      0.4608
  RMM-DIIS:  cpu time      1.7386: real time      1.7392
    ORTHCH:  cpu time      0.0423: real time      0.0423
       DOS:  cpu time      0.0007: real time      0.0007
    CHARGE:  cpu time      0.5946: real time      0.5954
    MIXING:  cpu time      0.0018: real time      0.0018
    --------------------------------------------
      LOOP:  cpu time      3.1341: real time      3.1522

 eigenvalue-minimisations  :  3483
 total energy-change (2. order) : 0.1355166E-01  (-0.9081350E-02)
 number of electron     160.0000002 magnetization 
 augmentation part       34.9554252 magnetization 

 Broyden mixing:
  rms(total) = 0.35671E-01    rms(broyden)= 0.35671E-01
  rms(prec ) = 0.41463E-01
  weight for this iteration     100.00

 eigenvalues of (default mixing * dielectric matrix)
  average eigenvalue GAMMA=   1.6782
  2.6030  1.7354  1.7354  0.6391

 Free energy of the ion-electron system (eV)
  ---------------------------------------------------
  alpha Z        PSCENC =       290.84593586
  Ewald energy   TEWEN  =    -11146.65336837
  -Hartree energ DENC   =     -3988.51328286
  -exchange      EXHF   =         0.00000000
  -V(xc)+E(xc)   XCENC  =        92.02283818
  PAW double counting   =     14857.75850020   -14421.65123798
  entropy T*S    EENTRO =        -0.00000000
  eigenvalues    EBANDS =      -833.95862233
  atomic energy  EATOM  =     15084.07529148
  Solvation  Ediel_sol  =         0.00000000
  ---------------------------------------------------
  free energy    TOTEN  =       -66.07394580 eV

  energy without entropy =      -66.07394580  energy(sigma->0) =      -66.07394580


--------------------------------------------------------------------------------------------------------




--------------------------------------- Iteration      1(  10)  ---------------------------------------


    POTLOK:  cpu time      0.0551: real time      0.0718
    SETDIJ:  cpu time      0.2398: real time      0.2398
    EDDIAG:  cpu time      0.4599: real time      0.4601
  RMM-DIIS:  cpu time      1.8056: real time      1.8061
    ORTHCH:  cpu time      0.0423: real time      0.0423
       DOS:  cpu time      0.0006: real time      0.0006
    CHARGE:  cpu time      0.5961: real time      0.5963
    MIXING:  cpu time      0.0016: real time      0.0016
    --------------------------------------------
      LOOP:  cpu time      3.2011: real time      3.2187

 eigenvalue-minimisations  :  3637
 total energy-change (2. order) :-0.2941612E-02  (-0.2958622E-02)
 number of electron     160.0000002 magnetization 
 augmentation part       34.9603752 magnetization 

 Broyden mixing:
  rms(total) = 0.23699E-01    rms(broyden)= 0.23698E-01
  rms(prec ) = 0.37164E-01
  weight for this iteration     100.00

 eigenvalues of (default mixing * dielectric matrix)
  average eigenvalue GAMMA=   1.4300
  2.5282  1.7895  1.7895  0.5214  0.5214

 Free energy of the ion-electron system (eV)
  ---------------------------------------------------
  alpha Z        PSCENC =       290.84593586
  Ewald energy   TEWEN  =    -11146.65336837
  -Hartree energ DENC   =     -3988.00604008
  -exchange      EXHF   =         0.00000000
  -V(xc)+E(xc)   XCENC  =        92.03081810
  PAW double counting   =     14914.53252867   -14478.51421513
  entropy T*S    EENTRO =        -0.00000000
  eigenvalues    EBANDS =      -834.38783794
  atomic energy  EATOM  =     15084.07529148
  Solvation  Ediel_sol  =         0.00000000
  ---------------------------------------------------
  free energy    TOTEN  =       -66.07688741 eV

  energy without entropy =      -66.07688741  energy(sigma->0) =      -66.07688741


--------------------------------------------------------------------------------------------------------




--------------------------------------- Iteration      1(  11)  ---------------------------------------


    POTLOK:  cpu time      0.0716: real time      0.0717
    SETDIJ:  cpu time      0.2397: real time      0.2398
    EDDIAG:  cpu time      0.4910: real time      0.4913
  RMM-DIIS:  cpu time      2.1288: real time      2.1299
    ORTHCH:  cpu time      0.0423: real time      0.0423
       DOS:  cpu time      0.0007: real time      0.0007
    CHARGE:  cpu time      0.5955: real time      0.5964
    MIXING:  cpu time      0.0017: real time      0.0017
    --------------------------------------------
      LOOP:  cpu time      3.5714: real time      3.5737

 eigenvalue-minimisations  :  4241
 total energy-change (2. order) : 0.3721411E-03  (-0.5637995E-03)
 number of electron     160.0000002 magnetization 
 augmentation part       34.9477520 magnetization 

 Broyden mixing:
  rms(total) = 0.22812E-01    rms(broyden)= 0.22812E-01
  rms(prec ) = 0.32331E-01
  weight for this iteration     100.00

 eigenvalues of (default mixing * dielectric matrix)
  average eigenvalue GAMMA=   1.7993
  3.6608  2.6410  1.6394  1.6394  0.7130  0.5022

 Free energy of the ion-electron system (eV)
  ---------------------------------------------------
  alpha Z        PSCENC =       290.84593586
  Ewald energy   TEWEN  =    -11146.65336837
  -Hartree energ DENC   =     -3988.45725034
  -exchange      EXHF   =         0.00000000
  -V(xc)+E(xc)   XCENC  =        92.03944137
  PAW double counting   =     14914.14095511   -14478.16738051
  entropy T*S    EENTRO =        -0.00000000
  eigenvalues    EBANDS =      -833.90013987
  atomic energy  EATOM  =     15084.07529148
  Solvation  Ediel_sol  =         0.00000000
  ---------------------------------------------------
  free energy    TOTEN  =       -66.07651527 eV

  energy without entropy =      -66.07651527  energy(sigma->0) =      -66.07651527


--------------------------------------------------------------------------------------------------------




--------------------------------------- Iteration      1(  12)  ---------------------------------------


    POTLOK:  cpu time      0.0559: real time      0.0721
    SETDIJ:  cpu time      0.2408: real time      0.2408
    EDDIAG:  cpu time      0.4607: real time      0.4608
  RMM-DIIS:  cpu time      1.9217: real time      1.9225
    ORTHCH:  cpu time      0.0423: real time      0.0423
       DOS:  cpu time      0.0007: real time      0.0008
    CHARGE:  cpu time      0.6012: real time      0.6016
    MIXING:  cpu time      0.0016: real time      0.0016
    --------------------------------------------
      LOOP:  cpu time      3.3250: real time      3.3424

 eigenvalue-minimisations  :  3847
 total energy-change (2. order) :-0.9577943E-03  (-0.1268224E-03)
 number of electron     160.0000002 magnetization 
 augmentation part       34.9516575 magnetization 

 Broyden mixing:
  rms(total) = 0.29616E-01    rms(broyden)= 0.29616E-01
  rms(prec ) = 0.41851E-01
  weight for this iteration     100.00

 eigenvalues of (default mixing * dielectric matrix)
  average eigenvalue GAMMA=   1.4739
  2.7206  2.0975  2.0975  1.0581  1.0581  0.8433  0.4424

 Free energy of the ion-electron system (eV)
  ---------------------------------------------------
  alpha Z        PSCENC =       290.84593586
  Ewald energy   TEWEN  =    -11146.65336837
  -Hartree energ DENC   =     -3988.05884020
  -exchange      EXHF   =         0.00000000
  -V(xc)+E(xc)   XCENC  =        92.03162701
  PAW double counting   =     14906.80519348   -14470.77308356
  entropy T*S    EENTRO =        -0.00000000
  eigenvalues    EBANDS =      -834.35022878
  atomic energy  EATOM  =     15084.07529148
  Solvation  Ediel_sol  =         0.00000000
  ---------------------------------------------------
  free energy    TOTEN  =       -66.07747307 eV

  energy without entropy =      -66.07747307  energy(sigma->0) =      -66.07747307


--------------------------------------------------------------------------------------------------------




--------------------------------------- Iteration      1(  13)  ---------------------------------------


    POTLOK:  cpu time      0.0557: real time      0.0722
    SETDIJ:  cpu time      0.2406: real time      0.2406
    EDDIAG:  cpu time      0.4621: real time      0.4623
  RMM-DIIS:  cpu time      1.9960: real time      1.9966
    ORTHCH:  cpu time      0.0425: real time      0.0425
       DOS:  cpu time      0.0007: real time      0.0007
    CHARGE:  cpu time      0.6064: real time      0.6065
    MIXING:  cpu time      0.0014: real time      0.0014
    --------------------------------------------
      LOOP:  cpu time      3.4053: real time      3.4227

 eigenvalue-minimisations  :  3946
 total energy-change (2. order) : 0.2263825E-02  (-0.9278254E-03)
 number of electron     160.0000002 magnetization 
 augmentation part       34.9302236 magnetization 

 Broyden mixing:
  rms(total) = 0.60282E-02    rms(broyden)= 0.60282E-02
  rms(prec ) = 0.65762E-02
  weight for this iteration     100.00

 eigenvalues of (default mixing * dielectric matrix)
  average eigenvalue GAMMA=   1.3245
  2.7893  2.0155  2.0155  1.2758  0.9013  0.9013  0.4735  0.2234

 Free energy of the ion-electron system (eV)
  ---------------------------------------------------
  alpha Z        PSCENC =       290.84593586
  Ewald energy   TEWEN  =    -11146.65336837
  -Hartree energ DENC   =     -3990.01067274
  -exchange      EXHF   =         0.00000000
  -V(xc)+E(xc)   XCENC  =        92.07537374
  PAW double counting   =     14948.46308445   -14512.74406269
  entropy T*S    EENTRO =        -0.00000000
  eigenvalues    EBANDS =      -832.12679098
  atomic energy  EATOM  =     15084.07529148
  Solvation  Ediel_sol  =         0.00000000
  ---------------------------------------------------
  free energy    TOTEN  =       -66.07520924 eV

  energy without entropy =      -66.07520924  energy(sigma->0) =      -66.07520924


--------------------------------------------------------------------------------------------------------




--------------------------------------- Iteration      1(  14)  ---------------------------------------


    POTLOK:  cpu time      0.0597: real time      0.0713
    SETDIJ:  cpu time      0.2393: real time      0.2398
    EDDIAG:  cpu time      0.4611: real time      0.4611
  RMM-DIIS:  cpu time      1.5790: real time      1.5797
    ORTHCH:  cpu time      0.0426: real time      0.0426
       DOS:  cpu time      0.0007: real time      0.0007
    CHARGE:  cpu time      0.5966: real time      0.5966
    MIXING:  cpu time      0.0015: real time      0.0015
    --------------------------------------------
      LOOP:  cpu time      2.9804: real time      2.9932

 eigenvalue-minimisations  :  3161
 total energy-change (2. order) :-0.4670717E-04  (-0.5547577E-04)
 number of electron     160.0000002 magnetization 
 augmentation part       34.9278433 magnetization 

 Broyden mixing:
  rms(total) = 0.66336E-02    rms(broyden)= 0.66336E-02
  rms(prec ) = 0.73146E-02
  weight for this iteration     100.00

 eigenvalues of (default mixing * dielectric matrix)
  average eigenvalue GAMMA=   1.2654
  2.9324  2.1903  1.9701  1.3259  0.9932  0.6438  0.6438  0.4180  0.2707

 Free energy of the ion-electron system (eV)
  ---------------------------------------------------
  alpha Z        PSCENC =       290.84593586
  Ewald energy   TEWEN  =    -11146.65336837
  -Hartree energ DENC   =     -3990.08294686
  -exchange      EXHF   =         0.00000000
  -V(xc)+E(xc)   XCENC  =        92.07772366
  PAW double counting   =     14948.64778864   -14512.92770841
  entropy T*S    EENTRO =        -0.00000000
  eigenvalues    EBANDS =      -832.05797196
  atomic energy  EATOM  =     15084.07529148
  Solvation  Ediel_sol  =         0.00000000
  ---------------------------------------------------
  free energy    TOTEN  =       -66.07525595 eV

  energy without entropy =      -66.07525595  energy(sigma->0) =      -66.07525595


--------------------------------------------------------------------------------------------------------




--------------------------------------- Iteration      1(  15)  ---------------------------------------


    POTLOK:  cpu time      0.0551: real time      0.0720
    SETDIJ:  cpu time      0.2397: real time      0.2404
    EDDIAG:  cpu time      0.4607: real time      0.4608
  RMM-DIIS:  cpu time      2.0442: real time      2.0451
    ORTHCH:  cpu time      0.0424: real time      0.0424
       DOS:  cpu time      0.0007: real time      0.0007
    CHARGE:  cpu time      0.5959: real time      0.5964
    MIXING:  cpu time      0.0020: real time      0.0020
    --------------------------------------------
      LOOP:  cpu time      3.4407: real time      3.4597

 eigenvalue-minimisations  :  4051
 total energy-change (2. order) :-0.3378095E-04  (-0.1805570E-04)
 number of electron     160.0000002 magnetization 
 augmentation part       34.9265705 magnetization 

 Broyden mixing:
  rms(total) = 0.88870E-02    rms(broyden)= 0.88870E-02
  rms(prec ) = 0.10056E-01
  weight for this iteration     100.00

 eigenvalues of (default mixing * dielectric matrix)
  average eigenvalue GAMMA=   1.2590
  2.9462  2.3635  1.7536  1.4748  0.9946  0.6163  0.6163  0.6947  0.6947  0.4355

 Free energy of the ion-electron system (eV)
  ---------------------------------------------------
  alpha Z        PSCENC =       290.84593586
  Ewald energy   TEWEN  =    -11146.65336837
  -Hartree energ DENC   =     -3990.21481085
  -exchange      EXHF   =         0.00000000
  -V(xc)+E(xc)   XCENC  =        92.08228619
  PAW double counting   =     14954.10832369   -14518.39568254
  entropy T*S    EENTRO =        -0.00000000
  eigenvalues    EBANDS =      -831.92326518
  atomic energy  EATOM  =     15084.07529148
  Solvation  Ediel_sol  =         0.00000000
  ---------------------------------------------------
  free energy    TOTEN  =       -66.07528973 eV

  energy without entropy =      -66.07528973  energy(sigma->0) =      -66.07528973


--------------------------------------------------------------------------------------------------------




--------------------------------------- Iteration      1(  16)  ---------------------------------------


    POTLOK:  cpu time      0.0580: real time      0.0720
    SETDIJ:  cpu time      0.2403: real time      0.2404
    EDDIAG:  cpu time      0.4626: real time      0.4628
  RMM-DIIS:  cpu time      1.9780: real time      1.9789
    ORTHCH:  cpu time      0.0426: real time      0.0426
       DOS:  cpu time      0.0007: real time      0.0007
    CHARGE:  cpu time      0.6047: real time      0.6047
    MIXING:  cpu time      0.0020: real time      0.0020
    --------------------------------------------
      LOOP:  cpu time      3.3890: real time      3.4042

 eigenvalue-minimisations  :  3849
 total energy-change (2. order) : 0.2237705E-04  (-0.2710286E-05)
 number of electron     160.0000002 magnetization 
 augmentation part       34.9270287 magnetization 

 Broyden mixing:
  rms(total) = 0.73705E-02    rms(broyden)= 0.73705E-02
  rms(prec ) = 0.83153E-02
  weight for this iteration     100.00

 eigenvalues of (default mixing * dielectric matrix)
  average eigenvalue GAMMA=   1.4009
  2.7680  1.7469  1.7469  1.9944  1.9944  1.2520  1.2520  0.8691  0.6729  0.6729
  0.4399

 Free energy of the ion-electron system (eV)
  ---------------------------------------------------
  alpha Z        PSCENC =       290.84593586
  Ewald energy   TEWEN  =    -11146.65336837
  -Hartree energ DENC   =     -3990.13596541
  -exchange      EXHF   =         0.00000000
  -V(xc)+E(xc)   XCENC  =        92.07882044
  PAW double counting   =     14949.54878272   -14513.82831941
  entropy T*S    EENTRO =        -0.00000000
  eigenvalues    EBANDS =      -832.00644466
  atomic energy  EATOM  =     15084.07529148
  Solvation  Ediel_sol  =         0.00000000
  ---------------------------------------------------
  free energy    TOTEN  =       -66.07526735 eV

  energy without entropy =      -66.07526735  energy(sigma->0) =      -66.07526735


--------------------------------------------------------------------------------------------------------




--------------------------------------- Iteration      1(  17)  ---------------------------------------


    POTLOK:  cpu time      0.0549: real time      0.0710
    SETDIJ:  cpu time      0.2396: real time      0.2401
    EDDIAG:  cpu time      0.4644: real time      0.4645
  RMM-DIIS:  cpu time      1.9704: real time      1.9713
    ORTHCH:  cpu time      0.0424: real time      0.0424
       DOS:  cpu time      0.0007: real time      0.0007
    CHARGE:  cpu time      0.5968: real time      0.5977
    MIXING:  cpu time      0.0020: real time      0.0020
    --------------------------------------------
      LOOP:  cpu time      3.3712: real time      3.3897

 eigenvalue-minimisations  :  3808
 total energy-change (2. order) : 0.2805112E-04  (-0.2133631E-04)
 number of electron     160.0000002 magnetization 
 augmentation part       34.9297957 magnetization 

 Broyden mixing:
  rms(total) = 0.55906E-02    rms(broyden)= 0.55905E-02
  rms(prec ) = 0.58825E-02
  weight for this iteration     100.00

 eigenvalues of (default mixing * dielectric matrix)
  average eigenvalue GAMMA=   1.3526
  2.8260  2.5079  1.7411  1.7411  1.3953  1.3953  0.9317  0.8365  0.8365  0.7906
  0.7906  0.4383

 Free energy of the ion-electron system (eV)
  ---------------------------------------------------
  alpha Z        PSCENC =       290.84593586
  Ewald energy   TEWEN  =    -11146.65336837
  -Hartree energ DENC   =     -3989.84852938
  -exchange      EXHF   =         0.00000000
  -V(xc)+E(xc)   XCENC  =        92.06668110
  PAW double counting   =     14935.18012448   -14499.42648354
  entropy T*S    EENTRO =        -0.00000000
  eigenvalues    EBANDS =      -832.31489093
  atomic energy  EATOM  =     15084.07529148
  Solvation  Ediel_sol  =         0.00000000
  ---------------------------------------------------
  free energy    TOTEN  =       -66.07523930 eV

  energy without entropy =      -66.07523930  energy(sigma->0) =      -66.07523930


--------------------------------------------------------------------------------------------------------




--------------------------------------- Iteration      1(  18)  ---------------------------------------


    POTLOK:  cpu time      0.0558: real time      0.0716
    SETDIJ:  cpu time      0.2402: real time      0.2402
    EDDIAG:  cpu time      0.4948: real time      0.4948
  RMM-DIIS:  cpu time      1.6221: real time      1.6228
    ORTHCH:  cpu time      0.0424: real time      0.0424
       DOS:  cpu time      0.0007: real time      0.0007
    CHARGE:  cpu time      0.5961: real time      0.5967
    MIXING:  cpu time      0.0024: real time      0.0024
    --------------------------------------------
      LOOP:  cpu time      3.0544: real time      3.0716

 eigenvalue-minimisations  :  3254
 total energy-change (2. order) : 0.4997104E-05  (-0.9800711E-06)
 number of electron     160.0000002 magnetization 
 augmentation part       34.9296449 magnetization 

 Broyden mixing:
  rms(total) = 0.67859E-02    rms(broyden)= 0.67859E-02
  rms(prec ) = 0.69827E-02
  weight for this iteration     100.00

 eigenvalues of (default mixing * dielectric matrix)
  average eigenvalue GAMMA=   1.5351
  4.0134  2.7253  1.4083  1.4083  1.9898  1.9898  1.6891  1.0514  0.9136  0.9136
  0.7072  0.7072  0.4390

 Free energy of the ion-electron system (eV)
  ---------------------------------------------------
  alpha Z        PSCENC =       290.84593586
  Ewald energy   TEWEN  =    -11146.65336837
  -Hartree energ DENC   =     -3989.89724482
  -exchange      EXHF   =         0.00000000
  -V(xc)+E(xc)   XCENC  =        92.06613188
  PAW double counting   =     14932.87309144   -14497.11986727
  entropy T*S    EENTRO =        -0.00000000
  eigenvalues    EBANDS =      -832.26520450
  atomic energy  EATOM  =     15084.07529148
  Solvation  Ediel_sol  =         0.00000000
  ---------------------------------------------------
  free energy    TOTEN  =       -66.07523431 eV

  energy without entropy =      -66.07523431  energy(sigma->0) =      -66.07523431


--------------------------------------------------------------------------------------------------------




--------------------------------------- Iteration      1(  19)  ---------------------------------------


    POTLOK:  cpu time      0.0560: real time      0.0715
    SETDIJ:  cpu time      0.2399: real time      0.2399
    EDDIAG:  cpu time      0.4625: real time      0.4626
  RMM-DIIS:  cpu time      1.6077: real time      1.6082
    ORTHCH:  cpu time      0.0423: real time      0.0423
       DOS:  cpu time      0.0007: real time      0.0007
    CHARGE:  cpu time      0.5954: real time      0.5962
    MIXING:  cpu time      0.0018: real time      0.0018
    --------------------------------------------
      LOOP:  cpu time      3.0064: real time      3.0232

 eigenvalue-minimisations  :  3194
 total energy-change (2. order) : 0.8040770E-06  (-0.1030884E-05)
 number of electron     160.0000002 magnetization 
 augmentation part       34.9296003 magnetization 

 Broyden mixing:
  rms(total) = 0.47464E-02    rms(broyden)= 0.47463E-02
  rms(prec ) = 0.49896E-02
  weight for this iteration     100.00

 eigenvalues of (default mixing * dielectric matrix)
  average eigenvalue GAMMA=   1.5517
  4.5665  2.7533  1.5246  1.5246  2.1858  1.7540  1.7540  0.9513  0.9513  1.0117
  0.8644  0.7215  0.7215  0.4390

 Free energy of the ion-electron system (eV)
  ---------------------------------------------------
  alpha Z        PSCENC =       290.84593586
  Ewald energy   TEWEN  =    -11146.65336837
  -Hartree energ DENC   =     -3990.05028685
  -exchange      EXHF   =         0.00000000
  -V(xc)+E(xc)   XCENC  =        92.07299425
  PAW double counting   =     14939.18547239   -14503.41433138
  entropy T*S    EENTRO =        -0.00000000
  eigenvalues    EBANDS =      -832.13694089
  atomic energy  EATOM  =     15084.07529148
  Solvation  Ediel_sol  =         0.00000000
  ---------------------------------------------------
  free energy    TOTEN  =       -66.07523350 eV

  energy without entropy =      -66.07523350  energy(sigma->0) =      -66.07523350


--------------------------------------------------------------------------------------------------------




--------------------------------------- Iteration      1(  20)  ---------------------------------------


    POTLOK:  cpu time      0.0567: real time      0.0710
    SETDIJ:  cpu time      0.2404: real time      0.2405
    EDDIAG:  cpu time      0.4630: real time      0.4630
  RMM-DIIS:  cpu time      1.5567: real time      1.5574
    ORTHCH:  cpu time      0.0424: real time      0.0424
       DOS:  cpu time      0.0007: real time      0.0007
    CHARGE:  cpu time      0.5954: real time      0.5961
    MIXING:  cpu time      0.0023: real time      0.0023
    --------------------------------------------
      LOOP:  cpu time      2.9576: real time      2.9734

 eigenvalue-minimisations  :  3098
 total energy-change (2. order) : 0.5113026E-05  (-0.8730967E-06)
 number of electron     160.0000002 magnetization 
 augmentation part       34.9290153 magnetization 

 Broyden mixing:
  rms(total) = 0.20520E-02    rms(broyden)= 0.20520E-02
  rms(prec ) = 0.21351E-02
  weight for this iteration     100.00

 eigenvalues of (default mixing * dielectric matrix)
  average eigenvalue GAMMA=   1.5537
  3.2706  3.2706  2.8156  1.4891  1.4891  1.9773  1.9773  1.2620  1.2620  0.7127
  0.7127  0.9140  0.9140  0.7991  0.4390

 Free energy of the ion-electron system (eV)
  ---------------------------------------------------
  alpha Z        PSCENC =       290.84593586
  Ewald energy   TEWEN  =    -11146.65336837
  -Hartree energ DENC   =     -3990.14594140
  -exchange      EXHF   =         0.00000000
  -V(xc)+E(xc)   XCENC  =        92.07737797
  PAW double counting   =     14944.54972008   -14508.78185771
  entropy T*S    EENTRO =        -0.00000000
  eigenvalues    EBANDS =      -832.04238629
  atomic energy  EATOM  =     15084.07529148
  Solvation  Ediel_sol  =         0.00000000
  ---------------------------------------------------
  free energy    TOTEN  =       -66.07522839 eV

  energy without entropy =      -66.07522839  energy(sigma->0) =      -66.07522839


--------------------------------------------------------------------------------------------------------




--------------------------------------- Iteration      1(  21)  ---------------------------------------


    POTLOK:  cpu time      0.0559: real time      0.0721
    SETDIJ:  cpu time      0.2410: real time      0.2410
    EDDIAG:  cpu time      0.4625: real time      0.4625
  RMM-DIIS:  cpu time      1.6724: real time      1.6730
    ORTHCH:  cpu time      0.0423: real time      0.0423
       DOS:  cpu time      0.0007: real time      0.0007
    CHARGE:  cpu time      0.5956: real time      0.5963
    MIXING:  cpu time      0.0023: real time      0.0023
    --------------------------------------------
      LOOP:  cpu time      3.0725: real time      3.0902

 eigenvalue-minimisations  :  3342
 total energy-change (2. order) :-0.2308680E-06  (-0.6199337E-06)
 number of electron     160.0000002 magnetization 
 augmentation part       34.9287122 magnetization 

 Broyden mixing:
  rms(total) = 0.59923E-03    rms(broyden)= 0.59904E-03
  rms(prec ) = 0.60407E-03
  weight for this iteration     100.00

 eigenvalues of (default mixing * dielectric matrix)
  average eigenvalue GAMMA=   1.5463
  3.8370  3.1244  2.6045  1.5178  1.5178  1.6991  1.6991  1.6462  1.1972  1.1972
  0.9629  0.9629  0.9080  0.7136  0.7136  0.4390

 Free energy of the ion-electron system (eV)
  ---------------------------------------------------
  alpha Z        PSCENC =       290.84593586
  Ewald energy   TEWEN  =    -11146.65336837
  -Hartree energ DENC   =     -3990.17743126
  -exchange      EXHF   =         0.00000000
  -V(xc)+E(xc)   XCENC  =        92.07902434
  PAW double counting   =     14947.15982863   -14511.39360290
  entropy T*S    EENTRO =        -0.00000000
  eigenvalues    EBANDS =      -832.01090639
  atomic energy  EATOM  =     15084.07529148
  Solvation  Ediel_sol  =         0.00000000
  ---------------------------------------------------
  free energy    TOTEN  =       -66.07522862 eV

  energy without entropy =      -66.07522862  energy(sigma->0) =      -66.07522862


--------------------------------------------------------------------------------------------------------




--------------------------------------- Iteration      1(  22)  ---------------------------------------


    POTLOK:  cpu time      0.0724: real time      0.0725
    SETDIJ:  cpu time      0.2403: real time      0.2403
    EDDIAG:  cpu time      0.4626: real time      0.4628
  RMM-DIIS:  cpu time      1.7176: real time      1.7181
    ORTHCH:  cpu time      0.0424: real time      0.0424
       DOS:  cpu time      0.0007: real time      0.0007
    CHARGE:  cpu time      0.5970: real time      0.5974
    MIXING:  cpu time      0.0022: real time      0.0022
    --------------------------------------------
      LOOP:  cpu time      3.1352: real time      3.1365

 eigenvalue-minimisations  :  3393
 total energy-change (2. order) :-0.3277928E-06  (-0.5122328E-07)
 number of electron     160.0000002 magnetization 
 augmentation part       34.9288323 magnetization 

 Broyden mixing:
  rms(total) = 0.37490E-03    rms(broyden)= 0.37459E-03
  rms(prec ) = 0.40388E-03
  weight for this iteration     100.00

 eigenvalues of (default mixing * dielectric matrix)
  average eigenvalue GAMMA=   1.5064
  3.0722  3.0722  2.7595  1.5178  1.5178  2.0584  1.8216  1.8216  1.1976  1.1976
[...]
 -----------------------------------------------------------------------------------
      3.33362      3.33362      3.33362         0.000000      0.000000      0.000000
      3.33362      6.66725      6.66725         0.000000     -0.000000     -0.000000
      6.66725      3.33362      6.66725        -0.000000      0.000000     -0.000000
      6.66725      6.66725     10.00087         0.000000      0.000000     -0.000000
      6.66725      6.66725      3.33362        -0.000000     -0.000000      0.000000
      6.66725     10.00087      6.66725         0.000000     -0.000000      0.000000
     10.00087      6.66725      6.66725        -0.000000      0.000000      0.000000
     10.00087     10.00087     10.00087        -0.000000     -0.000000     -0.000000
      0.00000      0.00000      0.00000        -0.000000     -0.000000     -0.000000
      0.00000      3.33362      3.33362        -0.000000     -0.000000      0.000000
      3.33362      0.00000      3.33362        -0.000000     -0.000000      0.000000
      3.33362      3.33362      6.66725         0.000000      0.000000      0.000000
      3.33362      3.33362      0.00000        -0.000000     -0.000000     -0.000000
      3.33362      6.66725      3.33362         0.000000      0.000000      0.000000
      6.66725      3.33362      3.33362         0.000000      0.000000      0.000000
      6.66725      6.66725      6.66725         0.000000      0.000000      0.000000
 -----------------------------------------------------------------------------------
    total drift:                                0.000000     -0.000000      0.000000


--------------------------------------------------------------------------------------------------------



  ML FREE ENERGIE OF THE ION-ELECTRON SYSTEM (eV)
  ---------------------------------------------------
  free  energy ML TOTEN  =       -66.07670984 eV

  ML energy  without entropy=      -66.07670984  ML energy(sigma->0) =      -66.07670984

     LOOP+:  cpu time      0.0060: real time      0.0275


--------------------------------------------------------------------------------------------------------


    OFIELD:  cpu time      0.0000: real time      0.0000

  ML FORCE on cell =-STRESS in cart. coord. units (eV/cell)
  Direction    XX          YY          ZZ          XY          YZ          ZX
  --------------------------------------------------------------------------------------
  Total:      0.00263     0.00263     0.00263     0.00000     0.00000     0.00000
  in kB       0.00644     0.00644     0.00644     0.00000     0.00000     0.00000
  external pressure =        0.01 kB  Pullay stress =        0.00 kB

  kinetic pressure (ideal gas correction) =      0.00 kB
  total pressure  =      0.01 kB
  Total+kin.     0.006       0.006       0.006       0.000       0.000       0.000
  volume of cell :      654.62
      direct lattice vectors                 reciprocal lattice vectors
     0.000000000  6.891594347  6.891594347    -0.072552152  0.072552152  0.072552152
     6.891594347  0.000000000  6.891594347     0.072552152 -0.072552152  0.072552152
     6.891594347  6.891594347  0.000000000     0.072552152  0.072552152 -0.072552152

  length of vectors
     9.746186192  9.746186192  9.746186192     0.125664013  0.125664013  0.125664013


  POSITION                                       TOTAL-FORCE (eV/Angst) (ML)
 -----------------------------------------------------------------------------------
      3.44580      3.44580      3.44580        -0.000000     -0.000000     -0.000000
      3.44580      6.89159      6.89159        -0.000000      0.000000     -0.000000
      6.89159      3.44580      6.89159        -0.000000     -0.000000     -0.000000
      6.89159      6.89159     10.33739         0.000000      0.000000      0.000000
      6.89159      6.89159      3.44580        -0.000000     -0.000000     -0.000000
      6.89159     10.33739      6.89159         0.000000      0.000000      0.000000
     10.33739      6.89159      6.89159         0.000000      0.000000      0.000000
     10.33739     10.33739     10.33739        -0.000000     -0.000000      0.000000
      0.00000      0.00000      0.00000         0.000000      0.000000      0.000000
      0.00000      3.44580      3.44580        -0.000000      0.000000      0.000000
      3.44580      0.00000      3.44580         0.000000     -0.000000      0.000000
      3.44580      3.44580      6.89159        -0.000000     -0.000000      0.000000
      3.44580      3.44580      0.00000         0.000000      0.000000     -0.000000
      3.44580      6.89159      3.44580        -0.000000      0.000000     -0.000000
      6.89159      3.44580      3.44580         0.000000     -0.000000     -0.000000
      6.89159      6.89159      6.89159         0.000000      0.000000     -0.000000
 -----------------------------------------------------------------------------------
    total drift:                               -0.000000      0.000000      0.000000


--------------------------------------------------------------------------------------------------------



  ML FREE ENERGIE OF THE ION-ELECTRON SYSTEM (eV)
  ---------------------------------------------------
  free  energy ML TOTEN  =       -66.07741609 eV

  ML energy  without entropy=      -66.07741609  ML energy(sigma->0) =      -66.07741609

     LOOP+:  cpu time      0.0059: real time      0.0286


--------------------------------------------------------------------------------------------------------


    OFIELD:  cpu time      0.0000: real time      0.0000

  ML FORCE on cell =-STRESS in cart. coord. units (eV/cell)
  Direction    XX          YY          ZZ          XY          YZ          ZX
  --------------------------------------------------------------------------------------
  Total:      0.00020     0.00020     0.00020     0.00000     0.00000     0.00000
  in kB       0.00047     0.00047     0.00047     0.00000     0.00000     0.00000
  external pressure =        0.00 kB  Pullay stress =        0.00 kB

  kinetic pressure (ideal gas correction) =      0.00 kB
  total pressure  =      0.00 kB
  Total+kin.     0.000       0.000       0.000       0.000       0.000       0.000
  volume of cell :      673.87
      direct lattice vectors                 reciprocal lattice vectors
     0.000000000  6.958484815  6.958484815    -0.071854723  0.071854723  0.071854723
     6.958484815  0.000000000  6.958484815     0.071854723 -0.071854723  0.071854723
     6.958484815  6.958484815  0.000000000     0.071854723  0.071854723 -0.071854723

  length of vectors
     9.840783599  9.840783599  9.840783599     0.124456031  0.124456031  0.124456031


  POSITION                                       TOTAL-FORCE (eV/Angst) (ML)
 -----------------------------------------------------------------------------------
      3.47924      3.47924      3.47924         0.000000      0.000000      0.000000
      3.47924      6.95848      6.95848         0.000000     -0.000000      0.000000
      6.95848      3.47924      6.95848        -0.000000      0.000000      0.000000
      6.95848      6.95848     10.43773        -0.000000     -0.000000     -0.000000
      6.95848      6.95848      3.47924        -0.000000     -0.000000      0.000000
      6.95848     10.43773      6.95848         0.000000     -0.000000     -0.000000
     10.43773      6.95848      6.95848        -0.000000      0.000000     -0.000000
     10.43773     10.43773     10.43773        -0.000000     -0.000000     -0.000000
      0.00000      0.00000      0.00000        -0.000000     -0.000000     -0.000000
      0.00000      3.47924      3.47924         0.000000      0.000000     -0.000000
      3.47924      0.00000      3.47924         0.000000      0.000000     -0.000000
      3.47924      3.47924      6.95848         0.000000      0.000000     -0.000000
      3.47924      3.47924      0.00000        -0.000000     -0.000000      0.000000
      3.47924      6.95848      3.47924         0.000000     -0.000000     -0.000000
      6.95848      3.47924      3.47924        -0.000000      0.000000     -0.000000
      6.95848      6.95848      6.95848         0.000000      0.000000      0.000000
 -----------------------------------------------------------------------------------
    total drift:                                0.000000     -0.000000     -0.000000


--------------------------------------------------------------------------------------------------------



  ML FREE ENERGIE OF THE ION-ELECTRON SYSTEM (eV)
  ---------------------------------------------------
  free  energy ML TOTEN  =       -66.07745649 eV

  ML energy  without entropy=      -66.07745649  ML energy(sigma->0) =      -66.07745649

     LOOP+:  cpu time      0.0059: real time      0.0275


--------------------------------------------------------------------------------------------------------


    OFIELD:  cpu time      0.0000: real time      0.0000

  ML FORCE on cell =-STRESS in cart. coord. units (eV/cell)
  Direction    XX          YY          ZZ          XY          YZ          ZX
  --------------------------------------------------------------------------------------
  Total:      0.00001     0.00001     0.00001    -0.00000    -0.00000    -0.00000
  in kB       0.00002     0.00002     0.00002    -0.00000    -0.00000    -0.00000
  external pressure =        0.00 kB  Pullay stress =        0.00 kB

  kinetic pressure (ideal gas correction) =      0.00 kB
  total pressure  =      0.00 kB
  Total+kin.     0.000       0.000       0.000      -0.000      -0.000      -0.000
  volume of cell :      675.49
      direct lattice vectors                 reciprocal lattice vectors
     0.000000000  6.964078878  6.964078878    -0.071797004  0.071797004  0.071797004
     6.964078878  0.000000000  6.964078878     0.071797004 -0.071797004  0.071797004
     6.964078878  6.964078878  0.000000000     0.071797004  0.071797004 -0.071797004

  length of vectors
     9.848694799  9.848694799  9.848694799     0.124356059  0.124356059  0.124356059


  POSITION                                       TOTAL-FORCE (eV/Angst) (ML)
 -----------------------------------------------------------------------------------
      3.48204      3.48204      3.48204        -0.000000     -0.000000      0.000000
      3.48204      6.96408      6.96408         0.000000     -0.000000      0.000000
      6.96408      3.48204      6.96408        -0.000000      0.000000      0.000000
      6.96408      6.96408     10.44612        -0.000000     -0.000000     -0.000000
      6.96408      6.96408      3.48204         0.000000      0.000000      0.000000
      6.96408     10.44612      6.96408         0.000000     -0.000000     -0.000000
     10.44612      6.96408      6.96408        -0.000000      0.000000     -0.000000
     10.44612     10.44612     10.44612         0.000000      0.000000     -0.000000
      0.00000      0.00000      0.00000        -0.000000     -0.000000     -0.000000
      0.00000      3.48204      3.48204        -0.000000     -0.000000     -0.000000
      3.48204      0.00000      3.48204        -0.000000     -0.000000     -0.000000
      3.48204      3.48204      6.96408        -0.000000     -0.000000      0.000000
      3.48204      3.48204      0.00000        -0.000000     -0.000000     -0.000000
      3.48204      6.96408      3.48204        -0.000000     -0.000000     -0.000000
      6.96408      3.48204      3.48204        -0.000000     -0.000000     -0.000000
      6.96408      6.96408      6.96408        -0.000000     -0.000000      0.000000
 -----------------------------------------------------------------------------------
    total drift:                                0.000000     -0.000000     -0.000000


--------------------------------------------------------------------------------------------------------



  ML FREE ENERGIE OF THE ION-ELECTRON SYSTEM (eV)
  ---------------------------------------------------
  free  energy ML TOTEN  =       -66.07745674 eV

  ML energy  without entropy=      -66.07745674  ML energy(sigma->0) =      -66.07745674

     LOOP+:  cpu time      0.0059: real time      0.0278


--------------------------------------------------------------------------------------------------------


    OFIELD:  cpu time      0.0000: real time      0.0000

  ML FORCE on cell =-STRESS in cart. coord. units (eV/cell)
  Direction    XX          YY          ZZ          XY          YZ          ZX
  --------------------------------------------------------------------------------------
  Total:      0.00000     0.00000     0.00000     0.00000     0.00000     0.00000
  in kB       0.00000     0.00000     0.00000     0.00000     0.00000     0.00000
  external pressure =        0.00 kB  Pullay stress =        0.00 kB

  kinetic pressure (ideal gas correction) =      0.00 kB
  total pressure  =      0.00 kB
  Total+kin.     0.000       0.000       0.000       0.000       0.000       0.000
  volume of cell :      675.58
      direct lattice vectors                 reciprocal lattice vectors
     0.000000000  6.964360385  6.964360385    -0.071794102  0.071794102  0.071794102
     6.964360385  0.000000000  6.964360385     0.071794102 -0.071794102  0.071794102
     6.964360385  6.964360385  0.000000000     0.071794102  0.071794102 -0.071794102

  length of vectors
     9.849092910  9.849092910  9.849092910     0.124351032  0.124351032  0.124351032


  POSITION                                       TOTAL-FORCE (eV/Angst) (ML)
 -----------------------------------------------------------------------------------
      3.48218      3.48218      3.48218        -0.000000     -0.000000     -0.000000
      3.48218      6.96436      6.96436        -0.000000      0.000000      0.000000
      6.96436      3.48218      6.96436         0.000000     -0.000000      0.000000
      6.96436      6.96436     10.44654         0.000000      0.000000     -0.000000
      6.96436      6.96436      3.48218        -0.000000     -0.000000     -0.000000
      6.96436     10.44654      6.96436        -0.000000     -0.000000     -0.000000
     10.44654      6.96436      6.96436        -0.000000     -0.000000     -0.000000
     10.44654     10.44654     10.44654         0.000000      0.000000      0.000000
      0.00000      0.00000      0.00000         0.000000      0.000000      0.000000
      0.00000      3.48218      3.48218         0.000000      0.000000     -0.000000
      3.48218      0.00000      3.48218         0.000000      0.000000     -0.000000
      3.48218      3.48218      6.96436         0.000000      0.000000      0.000000
      3.48218      3.48218      0.00000        -0.000000     -0.000000      0.000000
      3.48218      6.96436      3.48218         0.000000     -0.000000      0.000000
      6.96436      3.48218      3.48218        -0.000000      0.000000      0.000000
      6.96436      6.96436      6.96436        -0.000000     -0.000000      0.000000
 -----------------------------------------------------------------------------------
    total drift:                                0.000000     -0.000000     -0.000000


--------------------------------------------------------------------------------------------------------



  ML FREE ENERGIE OF THE ION-ELECTRON SYSTEM (eV)
  ---------------------------------------------------
  free  energy ML TOTEN  =       -66.07745674 eV

  ML energy  without entropy=      -66.07745674  ML energy(sigma->0) =      -66.07745674

     LOOP+:  cpu time      0.0059: real time      0.0275


--------------------------------------------------------------------------------------------------------


  
 reached required accuracy - stopping structural energy minimisation
    OFIELD:  cpu time      0.0000: real time      0.0000

  ML FORCE on cell =-STRESS in cart. coord. units (eV/cell)
  Direction    XX          YY          ZZ          XY          YZ          ZX
  --------------------------------------------------------------------------------------
  Total:      0.00000     0.00000     0.00000     0.00000     0.00000     0.00000
  in kB       0.00000     0.00000     0.00000     0.00000     0.00000     0.00000
  external pressure =        0.00 kB  Pullay stress =        0.00 kB

  kinetic pressure (ideal gas correction) =      0.00 kB
  total pressure  =      0.00 kB
  Total+kin.     0.000       0.000       0.000       0.000       0.000       0.000
  volume of cell :      675.58
      direct lattice vectors                 reciprocal lattice vectors
     0.000000000  6.964360385  6.964360385    -0.071794102  0.071794102  0.071794102
     6.964360385  0.000000000  6.964360385     0.071794102 -0.071794102  0.071794102
     6.964360385  6.964360385  0.000000000     0.071794102  0.071794102 -0.071794102

  length of vectors
     9.849092910  9.849092910  9.849092910     0.124351032  0.124351032  0.124351032


  POSITION                                       TOTAL-FORCE (eV/Angst) (ML)
 -----------------------------------------------------------------------------------
      3.48218      3.48218      3.48218        -0.000000     -0.000000     -0.000000
      3.48218      6.96436      6.96436        -0.000000      0.000000      0.000000
      6.96436      3.48218      6.96436         0.000000     -0.000000      0.000000
      6.96436      6.96436     10.44654         0.000000      0.000000     -0.000000
      6.96436      6.96436      3.48218        -0.000000     -0.000000     -0.000000
      6.96436     10.44654      6.96436        -0.000000     -0.000000     -0.000000
     10.44654      6.96436      6.96436        -0.000000     -0.000000     -0.000000
     10.44654     10.44654     10.44654         0.000000      0.000000      0.000000
      0.00000      0.00000      0.00000         0.000000      0.000000      0.000000
      0.00000      3.48218      3.48218         0.000000      0.000000     -0.000000
      3.48218      0.00000      3.48218         0.000000      0.000000     -0.000000
      3.48218      3.48218      6.96436         0.000000      0.000000      0.000000
      3.48218      3.48218      0.00000        -0.000000     -0.000000      0.000000
      3.48218      6.96436      3.48218         0.000000     -0.000000      0.000000
      6.96436      3.48218      3.48218        -0.000000      0.000000      0.000000
      6.96436      6.96436      6.96436        -0.000000     -0.000000      0.000000
 -----------------------------------------------------------------------------------
    total drift:                                0.000000     -0.000000     -0.000000


--------------------------------------------------------------------------------------------------------



  ML FREE ENERGIE OF THE ION-ELECTRON SYSTEM (eV)
  ---------------------------------------------------
  free  energy ML TOTEN  =       -66.07745674 eV

  ML energy  without entropy=      -66.07745674  ML energy(sigma->0) =      -66.07745674

     LOOP+:  cpu time      0.0059: real time      0.0280

 total amount of memory used by VASP MPI-rank0    49771. kBytes
=======================================================================

   base      :      30000. kBytes
   nonl-proj :       5486. kBytes
   fftplans  :       6553. kBytes
   grid      :       4179. kBytes
   one-center:         15. kBytes
   wavefun   :       3538. kBytes

  
  
 General timing and accounting informations for this job:
 ========================================================
  
                  Total CPU time used (sec):      143.750
                            User time (sec):      133.526
                          System time (sec):       10.224
                         Elapsed time (sec):      146.800
  
                   Maximum memory used (kb):      339532.
                   Average memory used (kb):          N/A
  
                          Minor page faults:       460981
                          Major page faults:          957
                 Voluntary context switches:         4943
