 ----------------------------------------------------
    OOO  PPPP  EEEEE N   N M   M PPPP
   O   O P   P E     NN  N MM MM P   P
   O   O PPPP  EEEEE N N N M M M PPPP   -- VERSION
   O   O P     E     N  NN M   M P
    OOO  P     EEEEE N   N M   M P
 ----------------------------------------------------
 running  128 mpi-ranks, with    1 threads/rank
 distrk:  each k-point on  128 cores,    1 groups
 distr:  one band on   16 cores,    8 groups
 vasp.6.3.0 20Jan22 (build Feb 21 2022 11:18:28) complex                         
 POSCAR found type information on POSCAR PbTe
 POSCAR found :  2 types and      16 ions
 Reading from existing POTCAR
 scaLAPACK will be used
 Reading from existing POTCAR
 -----------------------------------------------------------------------------
|                                                                             |
|               ----> ADVICE to this user running VASP <----                  |
|                                                                             |
|     You enforced a specific xc type in the INCAR file but a different       |
|     type was found in the POTCAR file.                                      |
|     I HOPE YOU KNOW WHAT YOU ARE DOING!                                     |
|                                                                             |
 -----------------------------------------------------------------------------

 LDA part: xc-table for Pade appr. of Perdew
 Machine learning selected
 Setting communicators for machine learning
 Initializing machine learning
 POSCAR, INCAR and KPOINTS ok, starting setup
 FFT: planning ... GRIDC
 FFT: planning ... GRID_SOFT
 FFT: planning ... GRID
 WAVECAR not read
 WARNING: random wavefunctions but no delay for mixing, default for NELMDL
 entering main loop
       N       E                     dE             d eps       ncg     rms          rms(c)
DAV:   1     0.187448653167E+04    0.18745E+04   -0.73972E+04  3072   0.184E+03
DAV:   2     0.211327757839E+03   -0.16632E+04   -0.16189E+04  3080   0.480E+02
DAV:   3    -0.462562319703E+02   -0.25758E+03   -0.24445E+03  3736   0.214E+02
DAV:   4    -0.660620697723E+02   -0.19806E+02   -0.19455E+02  3712   0.572E+01
DAV:   5    -0.669741569022E+02   -0.91209E+00   -0.90917E+00  3808   0.115E+01    0.979E+00
RMM:   6    -0.661034539014E+02    0.87070E+00   -0.16649E+00  3125   0.367E+00    0.570E+00
RMM:   7    -0.661079280743E+02   -0.44742E-02   -0.18195E+00  3291   0.292E+00    0.156E+00
RMM:   8    -0.660874974636E+02    0.20431E-01   -0.38543E-01  3160   0.373E+00    0.467E-01
RMM:   9    -0.660739458018E+02    0.13552E-01   -0.90813E-02  3483   0.175E+00    0.357E-01
RMM:  10    -0.660768874142E+02   -0.29416E-02   -0.29586E-02  3637   0.697E-01    0.237E-01
RMM:  11    -0.660765152731E+02    0.37214E-03   -0.56380E-03  4241   0.313E-01    0.228E-01
RMM:  12    -0.660774730674E+02   -0.95779E-03   -0.12682E-03  3847   0.120E-01    0.296E-01
RMM:  13    -0.660752092424E+02    0.22638E-02   -0.92783E-03  3946   0.328E-01    0.603E-02
RMM:  14    -0.660752559496E+02   -0.46707E-04   -0.55476E-04  3161   0.745E-02    0.663E-02
RMM:  15    -0.660752897306E+02   -0.33781E-04   -0.18056E-04  4051   0.394E-02    0.889E-02
RMM:  16    -0.660752673535E+02    0.22377E-04   -0.27103E-05  3849   0.192E-02    0.737E-02
RMM:  17    -0.660752393024E+02    0.28051E-04   -0.21336E-04  3808   0.376E-02    0.559E-02
RMM:  18    -0.660752343053E+02    0.49971E-05   -0.98007E-06  3254   0.172E-02    0.679E-02
RMM:  19    -0.660752335012E+02    0.80408E-06   -0.10309E-05  3194   0.165E-02    0.475E-02
RMM:  20    -0.660752283882E+02    0.51130E-05   -0.87310E-06  3098   0.112E-02    0.205E-02
RMM:  21    -0.660752286191E+02   -0.23087E-06   -0.61993E-06  3342   0.581E-03    0.599E-03
RMM:  22    -0.660752289469E+02   -0.32779E-06   -0.51223E-07  3393   0.459E-03    0.375E-03
RMM:  23    -0.660752288975E+02    0.49396E-07   -0.29806E-07  3618   0.173E-03    0.188E-03
RMM:  24    -0.660752288609E+02    0.36553E-07   -0.54700E-08  2444   0.898E-04    0.151E-03
RMM:  25    -0.660752288384E+02    0.22512E-07   -0.13689E-08  1799   0.688E-04    0.141E-03
RMM:  26    -0.660752287916E+02    0.46815E-07   -0.11472E-08  1799   0.628E-04    0.120E-03
RMM:  27    -0.660752287915E+02    0.92768E-10   -0.13039E-08  1858   0.447E-04
   1 F= -.66075229E+02 E0= -.66075229E+02  d E =-.660752E+02
 curvature:   0.00 expect dE= 0.000E+00 dE for cont linesearch  0.000E+00
 trial: gam= 0.00000 g(F)=  0.000E+00 g(S)=  0.859E-05 ort = 0.000E+00 (trialstep = 0.100E+01)
 search vector abs. value=  0.859E-05
 bond charge predicted
       N       E                     dE             d eps       ncg     rms          rms(c)
DAV:   1    -0.660753454660E+02   -0.11667E-03   -0.36928E-03  3920   0.449E-01    0.575E-02
RMM:   2    -0.660752523164E+02    0.93150E-04   -0.19383E-04  3176   0.937E-02    0.224E-02
RMM:   3    -0.660752340586E+02    0.18258E-04   -0.95036E-05  3072   0.550E-02    0.273E-03
RMM:   4    -0.660752340623E+02   -0.36416E-08   -0.16954E-05  4032   0.183E-02    0.479E-03
RMM:   5    -0.660752341458E+02   -0.83506E-07   -0.15966E-06  3375   0.682E-03    0.520E-03
RMM:   6    -0.660752344042E+02   -0.25842E-06   -0.76261E-07  3926   0.413E-03    0.687E-03
RMM:   7    -0.660752331274E+02    0.12768E-05   -0.74505E-06  3720   0.179E-02    0.560E-03
RMM:   8    -0.660752327934E+02    0.33401E-06   -0.37558E-07  3098   0.456E-03    0.411E-03
RMM:   9    -0.660752327822E+02    0.11209E-07   -0.70214E-07  3073   0.532E-03    0.167E-03
RMM:  10    -0.660752328102E+02   -0.28043E-07   -0.43884E-08  2477   0.113E-03    0.172E-03
RMM:  11    -0.660752328199E+02   -0.96534E-08   -0.12014E-08  1758   0.665E-04
   2 F= -.66075233E+02 E0= -.66075233E+02  d E =-.402840E-05
 trial-energy change:   -0.000004  1 .order   -0.000005   -0.000009   -0.000001
 step:   1.3661(harm=  1.1055)  dis= 0.00000  next Energy=   -66.075233 (dE=-0.415E-05)
   3 F= -.66075235E+02 E0= -.66075235E+02  d E =-.587779E-05
 curvature:   2.82 expect dE= 0.653E-05 dE for cont linesearch  0.653E-05
 ZBRENT: increasing intervall
 opt :   2.0983  next Energy=   -66.075241 (dE=-0.118E-04)
   4 F= -.66075238E+02 E0= -.66075238E+02  d E =-.914361E-05
 curvature:  -2.56 expect dE=-0.593E-05 dE for cont linesearch -0.593E-05
 ZBRENT: increasing intervall
 opt :   3.5626  next Energy=   -66.075244 (dE=-0.157E-04)
   5 F= -.66075244E+02 E0= -.66075244E+02  d E =-.156743E-04
 curvature:  -2.82 expect dE=-0.653E-05 dE for cont linesearch -0.653E-05
 ZBRENT: increasing intervall
 opt :   6.4913  next Energy=   -66.075258 (dE=-0.287E-04)
   6 F= -.66075258E+02 E0= -.66075258E+02  d E =-.287317E-04
 curvature:  -5.64 expect dE=-0.131E-04 dE for cont linesearch -0.131E-04
 ZBRENT: increasing intervall
 opt :  12.3486  next Energy=   -66.075284 (dE=-0.549E-04)
   7 F= -.66075284E+02 E0= -.66075284E+02  d E =-.548289E-04
 curvature: -11.27 expect dE=-0.261E-04 dE for cont linesearch -0.261E-04
 ZBRENT: increasing intervall
 opt :  24.0633  next Energy=   -66.075336 (dE=-0.107E-03)
   8 F= -.66075336E+02 E0= -.66075336E+02  d E =-.106939E-03
 curvature: -22.55 expect dE=-0.521E-04 dE for cont linesearch -0.521E-04
 ZBRENT: increasing intervall
 opt :  47.4927  next Energy=   -66.075440 (dE=-0.211E-03)
   9 F= -.66075440E+02 E0= -.66075440E+02  d E =-.210711E-03
 curvature: -45.12 expect dE=-0.103E-03 dE for cont linesearch -0.103E-03
 ZBRENT: increasing intervall
 opt :  94.3515  next Energy=   -66.075646 (dE=-0.418E-03)
  10 F= -.66075644E+02 E0= -.66075644E+02  d E =-.415598E-03
 curvature: -90.35 expect dE=-0.200E-03 dE for cont linesearch -0.200E-03
 ZBRENT: increasing intervall
 opt : 188.0691  next Energy=   -66.076047 (dE=-0.818E-03)
  11 F= -.66076037E+02 E0= -.66076037E+02  d E =-.808228E-03
 curvature: ****** expect dE=-0.355E-03 dE for cont linesearch -0.355E-03
 ZBRENT: increasing intervall
 opt : 375.5043  next Energy=   -66.076757 (dE=-0.153E-02)
  12 F= -.66076710E+02 E0= -.66076710E+02  d E =-.148105E-02
 curvature: ****** expect dE=-0.436E-03 dE for cont linesearch -0.436E-03
 ZBRENT: increasing intervall
 opt : 750.3747  next Energy=   -66.077565 (dE=-0.234E-02)
  13 F= -.66077416E+02 E0= -.66077416E+02  d E =-.218730E-02
 curvature: ****** expect dE=-0.451E-04 dE for cont linesearch -0.451E-04
 ZBRENT: extrapolating
 opt : 862.1436  next Energy=   -66.077457 (dE=-0.223E-02)
  14 F= -.66077456E+02 E0= -.66077456E+02  d E =-.222770E-02
 curvature: ****** expect dE=-0.236E-06 dE for cont linesearch -0.236E-06
 ZBRENT: extrapolating
 opt : 871.4908  next Energy=   -66.077457 (dE=-0.223E-02)
  15 F= -.66077457E+02 E0= -.66077457E+02  d E =-.222795E-02
 curvature: ****** expect dE=-0.581E-09 dE for cont linesearch -0.581E-09
 ZBRENT: extrapolating
 opt : 871.9612  next Energy=   -66.077457 (dE=-0.223E-02)
  16 F= -.66077457E+02 E0= -.66077457E+02  d E =-.222795E-02
 curvature: ****** expect dE=-0.109E-14 dE for cont linesearch -0.109E-14
 trial: gam=-0.00000 g(F)=  0.000E+00 g(S)=  0.144E-17 ort = 0.352E-11 (trialstep = 0.175E+03)
 search vector abs. value=  0.100E-09
 reached required accuracy - stopping structural energy minimisation
For us, there is only the trying. The rest is not our business. ~T.S.Eliot
