<?xml version="1.0" encoding="ISO-8859-1"?>
<modeling>
 <generator>
  <i name="program" type="string">vasp </i>
  <i name="version" type="string">6.3.0  </i>
  <i name="subversion" type="string">20Jan22 (build Feb 21 2022 11:18:28) complex                          parallel </i>
  <i name="platform" type="string">CrayXC_GCC_OMP </i>
  <i name="date" type="string">2023 09 29 </i>
  <i name="time" type="string">07:58:43 </i>
 </generator>
 <incar>
  <i type="int" name="ISTART">     1</i>
  <i type="string" name="PREC">Accurate  (Precision level)</i>
  <i type="string" name="ALGO">FAST      (SCF minimisation algorithm</i>
  <i type="logical" name="ADDGRID"> T  </i>
  <i type="int" name="ISPIN">     1</i>
  <i type="int" name="INIWAV">     1</i>
  <i type="int" name="NELM">   500</i>
  <i type="int" name="NELMIN">     5</i>
  <i type="int" name="IBRION">     2</i>
  <i name="EDIFF">      0.00000001</i>
  <i name="EDIFFG">     -0.00000010</i>
  <i type="int" name="NSW">   200</i>
  <i type="int" name="ISIF">     7</i>
  <i type="int" name="ISYM">     2</i>
  <i type="int" name="NBLOCK">     1</i>
  <i name="ENMAX">    600.00000000</i>
  <i type="int" name="NEDOS">  1000</i>
  <i type="logical" name="LREAL"> F  </i>
  <i type="logical" name="LPLANE"> T  </i>
  <i type="int" name="ISMEAR">     0</i>
  <i name="SIGMA">      0.01000000</i>
  <i type="int" name="NWRITE">     2</i>
  <i type="int" name="LMAXMIX">     4</i>
  <i type="int" name="LORBIT">    11</i>
  <i type="int" name="ICORELEVEL">     1</i>
  <i type="string" name="GGA">PS     (PBEsol exchange-correlation)</i>
  <i type="logical" name="ML_LMLFF"> T  </i>
 </incar>
 <primitive_cell>
  <structure name="primitive_cell" >
   <crystal>
    <varray name="basis" >
     <v>       0.00000000       3.22125830       3.22125830 </v>
     <v>       3.22125830       0.00000000       3.22125830 </v>
     <v>       3.22125830       3.22125830       0.00000000 </v>
    </varray>
    <i name="volume">     66.85080583 </i>
    <varray name="rec_basis" >
     <v>      -0.15521885       0.15521885       0.15521885 </v>
     <v>       0.15521885      -0.15521885       0.15521885 </v>
     <v>       0.15521885       0.15521885      -0.15521885 </v>
    </varray>
   </crystal>
   <varray name="positions" >
    <v>       0.50000000       0.50000000       0.50000000 </v>
    <v>       0.00000000       0.00000000       0.00000000 </v>
   </varray>
  </structure>
  <varray name="primitive_index" >
   <v type="int" >        1 </v>
   <v type="int" >        9 </v>
  </varray>
 </primitive_cell>
 <kpoints>
  <generation param="Gamma">
   <v type="int" name="divisions">       6        6        6 </v>
   <v name="usershift">      0.00000000       0.00000000       0.00000000 </v>
   <v name="genvec1">      0.16666667      -0.00000000       0.00000000 </v>
   <v name="genvec2">     -0.00000000       0.16666667      -0.00000000 </v>
   <v name="genvec3">      0.00000000       0.00000000       0.16666667 </v>
   <v name="shift">      0.00000000       0.00000000       0.00000000 </v>
  </generation>
  <varray name="kpointlist" >
   <v>       0.00000000       0.00000000       0.00000000 </v>
   <v>       0.16666667       0.00000000       0.00000000 </v>
   <v>       0.33333333       0.00000000       0.00000000 </v>
   <v>       0.50000000       0.00000000       0.00000000 </v>
   <v>       0.16666667       0.16666667       0.00000000 </v>
   <v>       0.33333333       0.16666667       0.00000000 </v>
   <v>       0.50000000       0.16666667       0.00000000 </v>
   <v>      -0.33333333       0.16666667       0.00000000 </v>
   <v>      -0.16666667       0.16666667       0.00000000 </v>
   <v>       0.33333333       0.33333333       0.00000000 </v>
   <v>       0.50000000       0.33333333       0.00000000 </v>
   <v>      -0.33333333       0.33333333       0.00000000 </v>
   <v>       0.50000000       0.50000000       0.00000000 </v>
   <v>       0.50000000       0.33333333       0.16666667 </v>
   <v>      -0.33333333       0.33333333       0.16666667 </v>
   <v>      -0.33333333       0.50000000       0.16666667 </v>
  </varray>
  <varray name="weights" >
   <v>       0.00462963 </v>
   <v>       0.03703704 </v>
   <v>       0.03703704 </v>
   <v>       0.01851852 </v>
   <v>       0.02777778 </v>
   <v>       0.11111111 </v>
   <v>       0.11111111 </v>
   <v>       0.11111111 </v>
   <v>       0.05555556 </v>
   <v>       0.02777778 </v>
   <v>       0.11111111 </v>
   <v>       0.05555556 </v>
   <v>       0.01388889 </v>
   <v>       0.11111111 </v>
   <v>       0.11111111 </v>
   <v>       0.05555556 </v>
  </varray>
 </kpoints>
 <parameters>
  <separator name="general" >
   <i type="string" name="SYSTEM">unknown system</i>
   <i type="logical" name="LCOMPAT"> F  </i>
  </separator>
  <separator name="electronic" >
   <i type="string" name="PREC">accura</i>
   <i name="ENMAX">    600.00000000</i>
   <i name="ENAUG">    391.91400000</i>
   <i name="EDIFF">      0.00000001</i>
   <i type="int" name="IALGO">    68</i>
   <i type="int" name="IWAVPR">    11</i>
   <i type="int" name="NBANDS">    96</i>
   <i type="int" name="NBANDSLOW">    -1</i>
   <i type="int" name="NBANDSHIGH">    -1</i>
   <i name="NELECT">    160.00000000</i>
   <i type="int" name="TURBO">     0</i>
   <i type="int" name="IRESTART">     0</i>
   <i type="int" name="NREBOOT">     0</i>
   <i type="int" name="NMIN">     0</i>
   <i name="EREF">      0.00000000</i>
   <separator name="electronic smearing" >
    <i type="int" name="ISMEAR">     0</i>
    <i name="SIGMA">      0.01000000</i>
    <i name="KSPACING">      0.50000000</i>
    <i type="logical" name="KGAMMA"> T  </i>
    <i type="logical" name="KBLOWUP"> T  </i>
   </separator>
   <separator name="electronic projectors" >
    <i type="logical" name="LREAL"> F  </i>
    <v name="ROPT">      0.00000000      0.00000000</v>
    <i type="int" name="LMAXPAW">  -100</i>
    <i type="int" name="LMAXMIX">     4</i>
    <i type="logical" name="NLSPLINE"> F  </i>
   </separator>
   <separator name="electronic startup" >
    <i type="int" name="ISTART">     0</i>
    <i type="int" name="ICHARG">     2</i>
    <i type="int" name="INIWAV">     1</i>
   </separator>
   <separator name="electronic spin" >
    <i type="int" name="ISPIN">     1</i>
    <i type="logical" name="LNONCOLLINEAR"> F  </i>
    <v name="MAGMOM">      1.00000000      1.00000000      1.00000000      1.00000000      1.00000000      1.00000000      1.00000000      1.00000000      1.00000000      1.00000000      1.00000000      1.00000000      1.00000000      1.00000000      1.00000000      1.00000000</v>
    <i name="NUPDOWN">     -1.00000000</i>
    <i type="logical" name="LSORBIT"> F  </i>
    <v name="SAXIS">      0.00000000      0.00000000      1.00000000</v>
    <i type="logical" name="LSPIRAL"> F  </i>
    <v name="QSPIRAL">      0.00000000      0.00000000      0.00000000</v>
    <i type="logical" name="LZEROZ"> F  </i>
   </separator>
   <separator name="electronic exchange-correlation" >
    <i type="logical" name="LASPH"> F  </i>
    <i type="logical" name="LMETAGGA"> F  </i>
   </separator>
   <separator name="electronic convergence" >
    <i type="int" name="NELM">   500</i>
    <i type="int" name="NELMDL">     0</i>
    <i type="int" name="NELMIN">     5</i>
    <i name="ENINI">    600.00000000</i>
    <separator name="electronic convergence detail" >
     <i type="logical" name="LDIAG"> T  </i>
     <i type="logical" name="LSUBROT"> F  </i>
     <i name="WEIMIN">      0.00100000</i>
     <i name="EBREAK">      0.00000000</i>
     <i name="DEPER">      0.30000000</i>
     <i type="int" name="NRMM">     4</i>
     <i name="TIME">      0.40000000</i>
    </separator>
   </separator>
   <separator name="electronic mixer" >
    <i name="AMIX">      0.40000000</i>
    <i name="BMIX">      1.00000000</i>
    <i name="AMIN">      0.10000000</i>
    <i name="AMIX_MAG">      1.60000000</i>
    <i name="BMIX_MAG">      1.00000000</i>
    <separator name="electronic mixer details" >
     <i type="int" name="IMIX">     4</i>
     <i type="logical" name="MIXFIRST"> F  </i>
     <i type="int" name="MAXMIX">   -45</i>
     <i name="WC">    100.00000000</i>
     <i type="int" name="INIMIX">     1</i>
     <i type="int" name="MIXPRE">     1</i>
     <i type="int" name="MREMOVE">     5</i>
    </separator>
   </separator>
   <separator name="electronic dipolcorrection" >
    <i type="logical" name="LDIPOL"> F  </i>
    <i type="logical" name="LMONO"> F  </i>
    <i type="int" name="IDIPOL">     0</i>
    <i name="EPSILON">      1.00000000</i>
    <v name="DIPOL">   -100.00000000   -100.00000000   -100.00000000</v>
    <i name="EFIELD">      0.00000000</i>
   </separator>
  </separator>
  <separator name="grids" >
   <i type="int" name="NGX">    80</i>
   <i type="int" name="NGY">    80</i>
   <i type="int" name="NGZ">    80</i>
   <i type="int" name="NGXF">   160</i>
   <i type="int" name="NGYF">   160</i>
   <i type="int" name="NGZF">   160</i>
   <i type="logical" name="ADDGRID"> T  </i>
  </separator>
  <separator name="ionic" >
   <i type="int" name="NSW">   200</i>
   <i type="int" name="IBRION">     2</i>
   <i type="int" name="MDALGO">     0</i>
   <i type="int" name="ISIF">     7</i>
   <i name="PSTRESS">      0.00000000</i>
   <i name="EDIFFG">     -0.00000010</i>
   <i type="int" name="NFREE">     1</i>
   <i name="POTIM">      0.50000000</i>
   <i name="SMASS">     -3.00000000</i>
   <i name="SCALEE">      1.00000000</i>
  </separator>
  <separator name="ionic md" >
   <i name="TEBEG">      0.00010000</i>
   <i name="TEEND">      0.00010000</i>
   <i type="int" name="NBLOCK">     1</i>
   <i type="int" name="KBLOCK">   200</i>
   <i type="int" name="NPACO">   256</i>
   <i name="APACO">     10.00000000</i>
  </separator>
  <separator name="symmetry" >
   <i type="int" name="ISYM">     2</i>
   <i name="SYMPREC">      0.00001000</i>
  </separator>
  <separator name="dos" >
   <i type="int" name="LORBIT">    11</i>
   <v name="RWIGS">     -1.00000000     -1.00000000</v>
   <i type="int" name="NEDOS">  1000</i>
   <i name="EMIN">     10.00000000</i>
   <i name="EMAX">    -10.00000000</i>
   <i name="EFERMI">      0.00000000</i>
  </separator>
  <separator name="writing" >
   <i type="int" name="NWRITE">     2</i>
   <i type="logical" name="LWAVE"> T  </i>
   <i type="logical" name="LDOWNSAMPLE"> F  </i>
   <i type="logical" name="LCHARG"> T  </i>
   <i type="logical" name="LPARD"> F  </i>
   <i type="logical" name="LVTOT"> F  </i>
   <i type="logical" name="LVHAR"> F  </i>
   <i type="logical" name="LELF"> F  </i>
   <i type="logical" name="LOPTICS"> F  </i>
   <v name="STM">      0.00000000      0.00000000      0.00000000      0.00000000      0.00000000      0.00000000      0.00000000</v>
  </separator>
  <separator name="performance" >
   <i type="int" name="NPAR">     8</i>
   <i type="int" name="NSIM">     4</i>
   <i type="int" name="NBLK">    -1</i>
   <i type="logical" name="LPLANE"> T  </i>
   <i type="logical" name="LSCALAPACK"> T  </i>
   <i type="logical" name="LSCAAWARE"> F  </i>
   <i type="logical" name="LSCALU"> F  </i>
   <i type="logical" name="LASYNC"> F  </i>
   <i type="logical" name="LORBITALREAL"> F  </i>
  </separator>
  <separator name="miscellaneous" >
   <i type="int" name="IDIOT">     3</i>
   <i type="int" name="PHON_NSTRUCT">    -1</i>
   <i type="logical" name="LMUSIC"> F  </i>
   <v name="POMASS">    207.20000000    127.60000000</v>
   <v name="DARWINR">      0.00000000      0.00000000</v>
   <v name="DARWINV">      1.00000000      1.00000000</v>
   <i type="logical" name="LCORR"> T  </i>
  </separator>
  <i type="logical" name="GGA_COMPAT"> T  </i>
  <i type="logical" name="LBERRY"> F  </i>
  <i type="int" name="ICORELEVEL">     1</i>
  <i type="int" name="CLNT">     1</i>
  <i type="int" name="CLN">     1</i>
  <i type="int" name="CLL">     0</i>
  <i name="CLZ">      0.00000000</i>
  <i type="logical" name="LDAU"> F  </i>
  <i type="int" name="I_CONSTRAINED_M">     0</i>
  <separator name="electronic exchange-correlation" >
   <i type="string" name="GGA">PS</i>
   <i type="int" name="VOSKOWN">     0</i>
   <i type="logical" name="LHFCALC"> F  </i>
   <i type="string" name="PRECFOCK"></i>
   <i type="logical" name="LSYMGRAD"> F  </i>
   <i type="logical" name="LHFONE"> F  </i>
   <i type="logical" name="LRHFCALC"> F  </i>
   <i type="logical" name="LTHOMAS"> F  </i>
   <i type="logical" name="LMODELHF"> F  </i>
   <i type="logical" name="LFOCKACE"> F  </i>
   <i name="ENCUT4O">     -1.00000000</i>
   <i type="int" name="EXXOEP">     0</i>
   <i type="int" name="FOURORBIT">     0</i>
   <i name="AEXX">      0.00000000</i>
   <i name="HFALPHA">      0.00000000</i>
   <i name="MCALPHA">      0.00000000</i>
   <i name="ALDAX">      1.00000000</i>
   <i name="AGGAX">      1.00000000</i>
   <i name="ALDAC">      1.00000000</i>
   <i name="AGGAC">      1.00000000</i>
   <i type="int" name="NKREDX">     1</i>
   <i type="int" name="NKREDY">     1</i>
   <i type="int" name="NKREDZ">     1</i>
   <i type="logical" name="SHIFTRED"> F  </i>
   <i type="logical" name="ODDONLY"> F  </i>
   <i type="logical" name="EVENONLY"> F  </i>
   <i type="int" name="LMAXFOCK">     0</i>
   <i type="int" name="NMAXFOCKAE">     0</i>
   <i type="logical" name="LFOCKAEDFT"> F  </i>
   <i name="HFSCREEN">      0.00000000</i>
   <i name="HFSCREENC">      0.00000000</i>
   <i type="int" name="NBANDSGWLOW">     0</i>
  </separator>
  <separator name="vdW DFT" >
   <i type="logical" name="LUSE_VDW"> F  </i>
   <i name="Zab_VDW">     -0.84910000</i>
   <i name="PARAM1">      0.12340000</i>
   <i name="PARAM2">      1.00000000</i>
   <i name="PARAM3">      0.00000000</i>
  </separator>
  <separator name="model GW" >
   <i type="int" name="MODEL_GW">     0</i>
   <i name="MODEL_EPS0">     20.05524175</i>
   <i name="MODEL_ALPHA">      1.00000000</i>
  </separator>
  <separator name="linear response parameters" >
   <i type="logical" name="LEPSILON"> F  </i>
   <i type="logical" name="LRPA"> F  </i>
   <i type="logical" name="LNABLA"> F  </i>
   <i type="logical" name="LVEL"> F  </i>
   <i name="CSHIFT">      0.10000000</i>
   <i name="OMEGAMAX">     -1.00000000</i>
   <i name="DEG_THRESHOLD">      0.00200000</i>
   <i name="RTIME">     -0.10000000</i>
   <i name="WPLASMAI">      0.00000000</i>
   <v name="DFIELD">      0.00000000      0.00000000      0.00000000</v>
   <v name="WPLASMA">      0.00000000      0.00000000      0.00000000      0.00000000      0.00000000      0.00000000      0.00000000      0.00000000      0.00000000</v>
  </separator>
  <separator name="orbital magnetization" >
   <i type="logical" name="NUCIND"> F  </i>
   <v name="MAGPOS">      0.00000000      0.00000000      0.00000000</v>
   <i type="logical" name="LNICSALL"> T  </i>
   <i type="logical" name="ORBITALMAG"> F  </i>
   <i type="logical" name="LMAGBLOCH"> F  </i>
   <i type="logical" name="LCHIMAG"> F  </i>
   <i type="logical" name="LGAUGE"> T  </i>
   <i type="int" name="MAGATOM">     0</i>
   <v name="MAGDIPOL">      0.00000000      0.00000000      0.00000000</v>
   <v name="AVECCONST">      0.00000000      0.00000000      0.00000000</v>
  </separator>
  <separator name="response functions" >
   <i type="logical" name="LFINITE_TEMPERATURE"> F  </i>
   <i type="logical" name="LADDER"> F  </i>
   <i type="logical" name="LRPAFORCE"> F  </i>
   <i type="logical" name="LFXC"> F  </i>
   <i type="logical" name="LHARTREE"> T  </i>
   <i type="int" name="IBSE">     0</i>
   <v type="int" name="KPOINT">    -1     0     0     0</v>
   <i type="logical" name="LTCTC"> F  </i>
   <i type="logical" name="LTCTE"> F  </i>
   <i type="logical" name="LTETE"> F  </i>
   <i type="logical" name="LTRIPLET"> F  </i>
   <i type="logical" name="LFXCEPS"> F  </i>
   <i type="logical" name="LFXHEG"> F  </i>
   <i type="int" name="NATURALO">     2</i>
   <i type="logical" name="LHOLEGF"> F  </i>
   <i type="logical" name="L2ORDER"> F  </i>
   <i type="logical" name="LDMP1"> F  </i>
   <i type="logical" name="LMP2LT"> F  </i>
   <i type="logical" name="LSMP2LT"> F  </i>
   <i type="logical" name="LGWLF"> F  </i>
   <i name="ENCUTGW">     -2.00000000</i>
   <i name="ENCUTGWSOFT">     -2.00000000</i>
   <i name="ENCUTLF">     -1.00000000</i>
   <i type="logical" name="LESF_SPLINES"> F  </i>
   <i type="int" name="LMAXMP2">    -1</i>
   <i name="SCISSOR">      0.00000000</i>
   <i type="int" name="NOMEGA">     0</i>
   <i type="int" name="NOMEGAR">     0</i>
   <i type="int" name="NBANDSGW">    -1</i>
   <i type="int" name="NBANDSO">    -1</i>
   <i type="int" name="NBANDSV">    -1</i>
   <i type="int" name="NELMGW">     1</i>
   <i type="int" name="NELMHF">     1</i>
   <i type="int" name="DIM">     3</i>
   <i type="int" name="IESPILON">     4</i>
   <i type="int" name="ANTIRES">     0</i>
   <i name="OMEGAMAX">    -30.00000000</i>
   <i name="OMEGAMIN">    -30.00000000</i>
   <i name="OMEGATL">   -200.00000000</i>
   <i type="int" name="OMEGAGRID">     0</i>
   <i name="CSHIFT">     -0.10000000</i>
   <i type="logical" name="LSELFENERGY"> F  </i>
   <i type="logical" name="LSPECTRAL"> F  </i>
   <i type="logical" name="LSPECTRALGW"> F  </i>
   <i type="logical" name="LSINGLES"> F  </i>
   <i type="logical" name="LFERMIGW"> F  </i>
   <i type="logical" name="ODDONLYGW"> F  </i>
   <i type="logical" name="EVENONLYGW"> F  </i>
   <i type="int" name="NKREDLFX">     1</i>
   <i type="int" name="NKREDLFY">     1</i>
   <i type="int" name="NKREDLFZ">     1</i>
   <i type="int" name="MAXMEM">  2800</i>
   <i type="int" name="TELESCOPE">     0</i>
   <i type="int" name="NTAUPAR">    -1</i>
   <i type="int" name="NOMEGAPAR">    -1</i>
   <i name="DAMP_NEWTON">      0.80000001</i>
   <i name="LAMBDA">      1.00000000</i>
  </separator>
  <separator name="External order field" >
   <i name="OFIELD_KAPPA">      0.00000000</i>
   <v name="OFIELD_K">      0.00000000      0.00000000      0.00000000</v>
   <i name="OFIELD_Q6_NEAR">      0.00000000</i>
   <i name="OFIELD_Q6_FAR">      0.00000000</i>
   <i name="OFIELD_A">      0.00000000</i>
  </separator>
  <separator name="optional k-points parameters" >
   <i type="int" name="KPOINTS_OPT_MODE">     1</i>
   <i type="logical" name="LKPOINTS_OPT"> F  </i>
  </separator>
 </parameters>
 <atominfo>
  <atoms>      16 </atoms>
  <types>       2 </types>
  <array name="atoms" >
   <dimension dim="1">ion</dimension>
   <field type="string">element</field>
   <field type="int">atomtype</field>
   <set>
    <rc><c>Pb</c><c>   1</c></rc>
    <rc><c>Pb</c><c>   1</c></rc>
    <rc><c>Pb</c><c>   1</c></rc>
    <rc><c>Pb</c><c>   1</c></rc>
    <rc><c>Pb</c><c>   1</c></rc>
    <rc><c>Pb</c><c>   1</c></rc>
    <rc><c>Pb</c><c>   1</c></rc>
    <rc><c>Pb</c><c>   1</c></rc>
    <rc><c>Te</c><c>   2</c></rc>
    <rc><c>Te</c><c>   2</c></rc>
    <rc><c>Te</c><c>   2</c></rc>
    <rc><c>Te</c><c>   2</c></rc>
    <rc><c>Te</c><c>   2</c></rc>
    <rc><c>Te</c><c>   2</c></rc>
    <rc><c>Te</c><c>   2</c></rc>
    <rc><c>Te</c><c>   2</c></rc>
   </set>
  </array>
  <array name="atomtypes" >
   <dimension dim="1">type</dimension>
   <field type="int">atomspertype</field>
   <field type="string">element</field>
   <field>mass</field>
   <field>valence</field>
   <field type="string">pseudopotential</field>
   <set>
    <rc><c>   8</c><c>Pb</c><c>    207.20000000</c><c>     14.00000000</c><c>  PAW_PBE Pb_d 06Sep2000                </c></rc>
    <rc><c>   8</c><c>Te</c><c>    127.60000000</c><c>      6.00000000</c><c>  PAW_PBE Te 08Apr2002                  </c></rc>
   </set>
  </array>
 </atominfo>
 <structure name="initialpos" >
  <crystal>
   <varray name="basis" >
    <v>       0.00000000       6.44251660       6.44251660 </v>
    <v>       6.44251660       0.00000000       6.44251660 </v>
    <v>       6.44251660       6.44251660       0.00000000 </v>
   </varray>
   <i name="volume">    534.80644663 </i>
   <varray name="rec_basis" >
    <v>      -0.07760942       0.07760942       0.07760942 </v>
    <v>       0.07760942      -0.07760942       0.07760942 </v>
    <v>       0.07760942       0.07760942      -0.07760942 </v>
   </varray>
  </crystal>
  <varray name="positions" >
   <v>       0.25000000       0.25000000       0.25000000 </v>
   <v>       0.75000000       0.25000000       0.25000000 </v>
   <v>       0.25000000       0.75000000       0.25000000 </v>
   <v>       0.75000000       0.75000000       0.25000000 </v>
   <v>       0.25000000       0.25000000       0.75000000 </v>
   <v>       0.75000000       0.25000000       0.75000000 </v>
   <v>       0.25000000       0.75000000       0.75000000 </v>
   <v>       0.75000000       0.75000000       0.75000000 </v>
   <v>       0.00000000       0.00000000       0.00000000 </v>
   <v>       0.50000000       0.00000000       0.00000000 </v>
   <v>       0.00000000       0.50000000       0.00000000 </v>
   <v>       0.50000000       0.50000000       0.00000000 </v>
   <v>       0.00000000       0.00000000       0.50000000 </v>
   <v>       0.50000000       0.00000000       0.50000000 </v>
   <v>       0.00000000       0.50000000       0.50000000 </v>
   <v>       0.50000000       0.50000000       0.50000000 </v>
  </varray>
 </structure>
 <calculation>
  <scstep>
   <time name="dav">    1.82    1.91</time>
   <time name="total">    2.12    2.27</time>
   <energy>
    <i name="alphaZ">    290.84593586 </i>
    <i name="ewald"> -11146.65336837 </i>
    <i name="hartreedc">  -4022.51157267 </i>
    <i name="XCdc">     91.59616511 </i>
    <i name="pawpsdc">  13132.28373248 </i>
    <i name="pawaedc"> -12699.49664494 </i>
    <i name="eentropy">     -0.00082741 </i>
    <i name="bandstr">   1144.34782012 </i>
    <i name="atom">  15084.07529148 </i>
    <i name="e_fr_energy">   1874.48653167 </i>
    <i name="e_wo_entrp">   1874.48735907 </i>
    <i name="e_0_energy">   1874.48694537 </i>
   </energy>
  </scstep>
  <scstep>
   <time name="dav">    1.72    1.74</time>
   <time name="total">    1.72    1.74</time>
   <energy>
    <i name="e_fr_energy">    211.32775784 </i>
    <i name="e_wo_entrp">    211.32786299 </i>
    <i name="e_0_energy">    211.32781041 </i>
   </energy>
  </scstep>
  <scstep>
   <time name="dav">    1.99    2.01</time>
   <time name="total">    1.99    2.01</time>
   <energy>
    <i name="e_fr_energy">    -46.25623197 </i>
    <i name="e_wo_entrp">    -46.25623197 </i>
    <i name="e_0_energy">    -46.25623197 </i>
   </energy>
  </scstep>
  <scstep>
   <time name="dav">    1.98    2.00</time>
   <time name="total">    1.98    2.00</time>
   <energy>
    <i name="e_fr_energy">    -66.06206977 </i>
    <i name="e_wo_entrp">    -66.06206977 </i>
    <i name="e_0_energy">    -66.06206977 </i>
   </energy>
  </scstep>
  <scstep>
   <time name="dav">    2.01    2.02</time>
   <time name="total">    2.63    2.64</time>
   <energy>
    <i name="e_fr_energy">    -66.97415690 </i>
    <i name="e_wo_entrp">    -66.97415690 </i>
    <i name="e_0_energy">    -66.97415690 </i>
   </energy>
  </scstep>
  <scstep>
   <time name="diag">    0.47    0.47</time>
   <time name="diis">    1.57    1.57</time>
   <time name="orth">    0.04    0.04</time>
   <time name="total">    2.97    2.99</time>
   <energy>
    <i name="e_fr_energy">    -66.10345390 </i>
    <i name="e_wo_entrp">    -66.10345390 </i>
    <i name="e_0_energy">    -66.10345390 </i>
   </energy>
  </scstep>
  <scstep>
   <time name="diag">    0.46    0.46</time>
   <time name="diis">    1.70    1.70</time>
   <time name="orth">    0.04    0.04</time>
   <time name="total">    3.11    3.11</time>
   <energy>
    <i name="e_fr_energy">    -66.10792807 </i>
    <i name="e_wo_entrp">    -66.10792807 </i>
    <i name="e_0_energy">    -66.10792807 </i>
   </energy>
  </scstep>
  <scstep>
   <time name="diag">    0.46    0.46</time>
   <time name="diis">    1.56    1.56</time>
   <time name="orth">    0.04    0.04</time>
   <time name="total">    2.96    2.97</time>
   <energy>
    <i name="e_fr_energy">    -66.08749746 </i>
    <i name="e_wo_entrp">    -66.08749746 </i>
    <i name="e_0_energy">    -66.08749746 </i>
   </energy>
  </scstep>
  <scstep>
   <time name="diag">    0.46    0.46</time>
   <time name="diis">    1.74    1.74</time>
   <time name="orth">    0.04    0.04</time>
   <time name="total">    3.13    3.15</time>
   <energy>
    <i name="e_fr_energy">    -66.07394580 </i>
    <i name="e_wo_entrp">    -66.07394580 </i>
    <i name="e_0_energy">    -66.07394580 </i>
   </energy>
  </scstep>
  <scstep>
   <time name="diag">    0.46    0.46</time>
   <time name="diis">    1.81    1.81</time>
   <time name="orth">    0.04    0.04</time>
   <time name="total">    3.20    3.22</time>
   <energy>
    <i name="e_fr_energy">    -66.07688741 </i>
    <i name="e_wo_entrp">    -66.07688741 </i>
    <i name="e_0_energy">    -66.07688741 </i>
   </energy>
  </scstep>
  <scstep>
   <time name="diag">    0.49    0.49</time>
   <time name="diis">    2.13    2.13</time>
   <time name="orth">    0.04    0.04</time>
   <time name="total">    3.57    3.57</time>
   <energy>
    <i name="e_fr_energy">    -66.07651527 </i>
    <i name="e_wo_entrp">    -66.07651527 </i>
    <i name="e_0_energy">    -66.07651527 </i>
   </energy>
  </scstep>
  <scstep>
   <time name="diag">    0.46    0.46</time>
   <time name="diis">    1.92    1.92</time>
   <time name="orth">    0.04    0.04</time>
   <time name="total">    3.33    3.34</time>
   <energy>
    <i name="e_fr_energy">    -66.07747307 </i>
    <i name="e_wo_entrp">    -66.07747307 </i>
    <i name="e_0_energy">    -66.07747307 </i>
   </energy>
  </scstep>
  <scstep>
   <time name="diag">    0.46    0.46</time>
   <time name="diis">    2.00    2.00</time>
   <time name="orth">    0.04    0.04</time>
   <time name="total">    3.41    3.42</time>
   <energy>
    <i name="e_fr_energy">    -66.07520924 </i>
    <i name="e_wo_entrp">    -66.07520924 </i>
    <i name="e_0_energy">    -66.07520924 </i>
   </energy>
  </scstep>
  <scstep>
   <time name="diag">    0.46    0.46</time>
   <time name="diis">    1.58    1.58</time>
   <time name="orth">    0.04    0.04</time>
   <time name="total">    2.98    2.99</time>
   <energy>
    <i name="e_fr_energy">    -66.07525595 </i>
    <i name="e_wo_entrp">    -66.07525595 </i>
    <i name="e_0_energy">    -66.07525595 </i>
   </energy>
  </scstep>
  <scstep>
   <time name="diag">    0.46    0.46</time>
   <time name="diis">    2.04    2.05</time>
   <time name="orth">    0.04    0.04</time>
   <time name="total">    3.44    3.46</time>
   <energy>
    <i name="e_fr_energy">    -66.07528973 </i>
    <i name="e_wo_entrp">    -66.07528973 </i>
    <i name="e_0_energy">    -66.07528973 </i>
   </energy>
  </scstep>
  <scstep>
   <time name="diag">    0.46    0.46</time>
   <time name="diis">    1.98    1.98</time>
   <time name="orth">    0.04    0.04</time>
   <time name="total">    3.39    3.40</time>
   <energy>
    <i name="e_fr_energy">    -66.07526735 </i>
    <i name="e_wo_entrp">    -66.07526735 </i>
    <i name="e_0_energy">    -66.07526735 </i>
   </energy>
  </scstep>
  <scstep>
   <time name="diag">    0.46    0.46</time>
   <time name="diis">    1.97    1.97</time>
   <time name="orth">    0.04    0.04</time>
   <time name="total">    3.37    3.39</time>
   <energy>
    <i name="e_fr_energy">    -66.07523930 </i>
    <i name="e_wo_entrp">    -66.07523930 </i>
    <i name="e_0_energy">    -66.07523930 </i>
   </energy>
  </scstep>
  <scstep>
   <time name="diag">    0.49    0.49</time>
   <time name="diis">    1.62    1.62</time>
   <time name="orth">    0.04    0.04</time>
   <time name="total">    3.05    3.07</time>
   <energy>
    <i name="e_fr_energy">    -66.07523431 </i>
    <i name="e_wo_entrp">    -66.07523431 </i>
    <i name="e_0_energy">    -66.07523431 </i>
   </energy>
  </scstep>
  <scstep>
   <time name="diag">    0.46    0.46</time>
   <time name="diis">    1.61    1.61</time>
   <time name="orth">    0.04    0.04</time>
   <time name="total">    3.01    3.02</time>
   <energy>
    <i name="e_fr_energy">    -66.07523350 </i>
    <i name="e_wo_entrp">    -66.07523350 </i>
    <i name="e_0_energy">    -66.07523350 </i>
   </energy>
  </scstep>
  <scstep>
   <time name="diag">    0.46    0.46</time>
   <time name="diis">    1.56    1.56</time>
   <time name="orth">    0.04    0.04</time>
   <time name="total">    2.96    2.97</time>
   <energy>
    <i name="e_fr_energy">    -66.07522839 </i>
    <i name="e_wo_entrp">    -66.07522839 </i>
    <i name="e_0_energy">    -66.07522839 </i>
   </energy>
  </scstep>
  <scstep>
   <time name="diag">    0.46    0.46</time>
   <time name="diis">    1.67    1.67</time>
   <time name="orth">    0.04    0.04</time>
   <time name="total">    3.07    3.09</time>
   <energy>
    <i name="e_fr_energy">    -66.07522862 </i>
    <i name="e_wo_entrp">    -66.07522862 </i>
    <i name="e_0_energy">    -66.07522862 </i>
   </energy>
  </scstep>
  <scstep>
   <time name="diag">    0.46    0.46</time>
   <time name="diis">    1.72    1.72</time>
   <time name="orth">    0.04    0.04</time>
   <time name="total">    3.14    3.14</time>
   <energy>
    <i name="e_fr_energy">    -66.07522895 </i>
    <i name="e_wo_entrp">    -66.07522895 </i>
    <i name="e_0_energy">    -66.07522895 </i>
   </energy>
  </scstep>
  <scstep>
   <time name="diag">    0.46    0.46</time>
   <time name="diis">    1.86    1.87</time>
   <time name="orth">    0.04    0.04</time>
   <time name="total">    3.31    3.33</time>
   <energy>
    <i name="e_fr_energy">    -66.07522890 </i>
    <i name="e_wo_entrp">    -66.07522890 </i>
    <i name="e_0_energy">    -66.07522890 </i>
   </energy>
  </scstep>
  <scstep>
   <time name="diag">    0.46    0.46</time>
   <time name="diis">    1.30    1.30</time>
   <time name="orth">    0.04    0.04</time>
   <time name="total">    2.70    2.71</time>
   <energy>
    <i name="e_fr_energy">    -66.07522886 </i>
    <i name="e_wo_entrp">    -66.07522886 </i>
    <i name="e_0_energy">    -66.07522886 </i>
   </energy>
  </scstep>
  <scstep>
   <time name="diag">    0.46    0.46</time>
   <time name="diis">    0.96    0.96</time>
   <time name="orth">    0.04    0.04</time>
   <time name="total">    2.36    2.37</time>
   <energy>
    <i name="e_fr_energy">    -66.07522884 </i>
    <i name="e_wo_entrp">    -66.07522884 </i>
    <i name="e_0_energy">    -66.07522884 </i>
   </energy>
  </scstep>
  <scstep>
   <time name="diag">    0.46    0.46</time>
   <time name="diis">    0.97    0.97</time>
   <time name="orth">    0.04    0.04</time>
   <time name="total">    2.37    2.38</time>
   <energy>
    <i name="e_fr_energy">    -66.07522879 </i>
    <i name="e_wo_entrp">    -66.07522879 </i>
    <i name="e_0_energy">    -66.07522879 </i>
   </energy>
  </scstep>
  <scstep>
   <time name="diag">    0.47    0.47</time>
   <time name="diis">    1.02    1.02</time>
   <time name="orth">    0.04    0.04</time>
   <time name="total">    1.91    1.91</time>
   <energy>
    <i name="alphaZ">    290.84593586 </i>
    <i name="ewald"> -11146.65336837 </i>
    <i name="hartreedc">  -3990.16764496 </i>
    <i name="XCdc">     92.07867727 </i>
    <i name="pawpsdc">  14948.12942537 </i>
    <i name="pawaedc"> -14512.36253971 </i>
    <i name="eentropy">     -0.00000000 </i>
    <i name="bandstr">   -832.02100572 </i>
    <i name="atom">  15084.07529148 </i>
    <i name="e_fr_energy">    -66.07522879 </i>
    <i name="e_wo_entrp">    -66.07522879 </i>
    <i name="e_0_energy">    -66.07522879 </i>
   </energy>
  </scstep>
  <structure>
   <crystal>
    <varray name="basis" >
     <v>       0.00000000       6.44251660       6.44251660 </v>
     <v>       6.44251660       0.00000000       6.44251660 </v>
     <v>       6.44251660       6.44251660       0.00000000 </v>
    </varray>
    <i name="volume">    534.80644663 </i>
    <varray name="rec_basis" >
     <v>      -0.07760942       0.07760942       0.07760942 </v>
     <v>       0.07760942      -0.07760942       0.07760942 </v>
     <v>       0.07760942       0.07760942      -0.07760942 </v>
    </varray>
   </crystal>
   <varray name="positions" >
    <v>       0.25000000       0.25000000       0.25000000 </v>
    <v>       0.75000000       0.25000000       0.25000000 </v>
    <v>       0.25000000       0.75000000       0.25000000 </v>
    <v>       0.75000000       0.75000000       0.25000000 </v>
    <v>       0.25000000       0.25000000       0.75000000 </v>
    <v>       0.75000000       0.25000000       0.75000000 </v>
    <v>       0.25000000       0.75000000       0.75000000 </v>
    <v>       0.75000000       0.75000000       0.75000000 </v>
    <v>       0.00000000       0.00000000       0.00000000 </v>
    <v>       0.50000000       0.00000000       0.00000000 </v>
    <v>       0.00000000       0.50000000       0.00000000 </v>
    <v>       0.50000000       0.50000000       0.00000000 </v>
    <v>       0.00000000       0.00000000       0.50000000 </v>
    <v>       0.50000000       0.00000000       0.50000000 </v>
    <v>       0.00000000       0.50000000       0.50000000 </v>
    <v>       0.50000000       0.50000000       0.50000000 </v>
   </varray>
  </structure>
  <varray name="forces" >
   <v>       0.00000000      -0.00000000      -0.00000000 </v>
   <v>      -0.00000000       0.00000000       0.00000000 </v>
   <v>      -0.00000000       0.00000000       0.00000000 </v>
   <v>      -0.00000000      -0.00000000      -0.00000000 </v>
   <v>       0.00000000      -0.00000000       0.00000000 </v>
   <v>       0.00000000      -0.00000000       0.00000000 </v>
   <v>      -0.00000000      -0.00000000      -0.00000000 </v>
   <v>       0.00000000      -0.00000000       0.00000000 </v>
   <v>      -0.00000000       0.00000000      -0.00000000 </v>
   <v>      -0.00000000       0.00000000      -0.00000000 </v>
   <v>      -0.00000000       0.00000000      -0.00000000 </v>
   <v>       0.00000000       0.00000000      -0.00000000 </v>
   <v>      -0.00000000       0.00000000      -0.00000000 </v>
   <v>       0.00000000       0.00000000      -0.00000000 </v>
   <v>       0.00000000       0.00000000      -0.00000000 </v>
   <v>      -0.00000000       0.00000000      -0.00000000 </v>
  </varray>
  <varray name="stress" >
   <v>       0.09229763       0.00000000       0.00000000 </v>
   <v>       0.00000000       0.09229763       0.00000000 </v>
   <v>       0.00000000       0.00000000       0.09229763 </v>
  </varray>
  <energy>
   <i name="e_fr_energy">    -66.07522879 </i>
   <i name="e_wo_entrp">    -66.07522879 </i>
   <i name="e_0_energy">    -66.07522879 </i>
  </energy>
  <time name="totalsc">   92.43   93.24</time>
 </calculation>
 <calculation>
  <scstep>
   <time name="dav">    2.05    2.05</time>
   <time name="total">    2.93    2.93</time>
   <energy>
    <i name="alphaZ">    290.76489736 </i>
    <i name="ewald"> -11145.61800700 </i>
    <i name="hartreedc">  -3989.79756161 </i>
    <i name="XCdc">     92.03781755 </i>
    <i name="pawpsdc">  14948.16517057 </i>
    <i name="pawaedc"> -14512.39838157 </i>
    <i name="eentropy">     -0.00000000 </i>
    <i name="bandstr">   -833.30457225 </i>
    <i name="atom">  15084.07529148 </i>
    <i name="e_fr_energy">    -66.07534547 </i>
    <i name="e_wo_entrp">    -66.07534547 </i>
    <i name="e_0_energy">    -66.07534547 </i>
   </energy>
  </scstep>
  <scstep>
   <time name="diag">    0.46    0.46</time>
   <time name="diis">    1.57    1.57</time>
   <time name="orth">    0.04    0.04</time>
   <time name="total">    2.97    2.98</time>
   <energy>
    <i name="e_fr_energy">    -66.07525232 </i>
    <i name="e_wo_entrp">    -66.07525232 </i>
    <i name="e_0_energy">    -66.07525232 </i>
   </energy>
  </scstep>
  <scstep>
   <time name="diag">    0.46    0.46</time>
   <time name="diis">    1.52    1.52</time>
   <time name="orth">    0.04    0.04</time>
   <time name="total">    2.91    2.93</time>
   <energy>
    <i name="e_fr_energy">    -66.07523406 </i>
    <i name="e_wo_entrp">    -66.07523406 </i>
    <i name="e_0_energy">    -66.07523406 </i>
   </energy>
  </scstep>
  <scstep>
   <time name="diag">    0.46    0.46</time>
   <time name="diis">    2.01    2.01</time>
   <time name="orth">    0.04    0.04</time>
   <time name="total">    3.41    3.42</time>
   <energy>
    <i name="e_fr_energy">    -66.07523406 </i>
    <i name="e_wo_entrp">    -66.07523406 </i>
    <i name="e_0_energy">    -66.07523406 </i>
   </energy>
  </scstep>
  <scstep>
   <time name="diag">    0.46    0.46</time>
   <time name="diis">    1.68    1.68</time>
   <time name="orth">    0.04    0.04</time>
   <time name="total">    3.08    3.10</time>
   <energy>
    <i name="e_fr_energy">    -66.07523415 </i>
    <i name="e_wo_entrp">    -66.07523415 </i>
    <i name="e_0_energy">    -66.07523415 </i>
   </energy>
  </scstep>
  <scstep>
   <time name="diag">    0.46    0.46</time>
   <time name="diis">    1.96    1.96</time>
   <time name="orth">    0.04    0.04</time>
   <time name="total">    3.35    3.37</time>
   <energy>
    <i name="e_fr_energy">    -66.07523440 </i>
    <i name="e_wo_entrp">    -66.07523440 </i>
    <i name="e_0_energy">    -66.07523440 </i>
   </energy>
  </scstep>
  <scstep>
   <time name="diag">    0.46    0.46</time>
   <time name="diis">    1.87    1.87</time>
   <time name="orth">    0.04    0.04</time>
   <time name="total">    3.26    3.28</time>
   <energy>
    <i name="e_fr_energy">    -66.07523313 </i>
    <i name="e_wo_entrp">    -66.07523313 </i>
    <i name="e_0_energy">    -66.07523313 </i>
   </energy>
  </scstep>
  <scstep>
   <time name="diag">    0.46    0.46</time>
   <time name="diis">    1.54    1.54</time>
   <time name="orth">    0.04    0.04</time>
   <time name="total">    2.94    2.95</time>
   <energy>
    <i name="e_fr_energy">    -66.07523279 </i>
    <i name="e_wo_entrp">    -66.07523279 </i>
    <i name="e_0_energy">    -66.07523279 </i>
   </energy>
  </scstep>
  <scstep>
   <time name="diag">    0.46    0.46</time>
   <time name="diis">    1.52    1.52</time>
   <time name="orth">    0.04    0.04</time>
   <time name="total">    2.99    3.01</time>
   <energy>
    <i name="e_fr_energy">    -66.07523278 </i>
    <i name="e_wo_entrp">    -66.07523278 </i>
    <i name="e_0_energy">    -66.07523278 </i>
   </energy>
  </scstep>
  <scstep>
   <time name="diag">    0.46    0.46</time>
   <time name="diis">    1.27    1.27</time>
   <time name="orth">    0.04    0.04</time>
   <time name="total">    2.69    2.69</time>
   <energy>
    <i name="e_fr_energy">    -66.07523281 </i>
    <i name="e_wo_entrp">    -66.07523281 </i>
    <i name="e_0_energy">    -66.07523281 </i>
   </energy>
  </scstep>
  <scstep>
   <time name="diag">    0.46    0.46</time>
   <time name="diis">    0.94    0.94</time>
   <time name="orth">    0.04    0.04</time>
   <time name="total">    1.80    1.82</time>
   <energy>
    <i name="alphaZ">    290.76489736 </i>
    <i name="ewald"> -11145.61800700 </i>
    <i name="hartreedc">  -3990.66053240 </i>
    <i name="XCdc">     92.06834751 </i>
    <i name="pawpsdc">  14946.60137923 </i>
    <i name="pawaedc"> -14510.82346463 </i>
    <i name="eentropy">     -0.00000000 </i>
    <i name="bandstr">   -832.48314437 </i>
    <i name="atom">  15084.07529148 </i>
    <i name="e_fr_energy">    -66.07523282 </i>
    <i name="e_wo_entrp">    -66.07523282 </i>
    <i name="e_0_energy">    -66.07523282 </i>
   </energy>
  </scstep>
  <structure>
   <crystal>
    <varray name="basis" >
     <v>       0.00000000       6.44311507       6.44311507 </v>
     <v>       6.44311507       0.00000000       6.44311507 </v>
     <v>       6.44311507       6.44311507       0.00000000 </v>
    </varray>
    <i name="volume">    534.95550145 </i>
    <varray name="rec_basis" >
     <v>      -0.07760221       0.07760221       0.07760221 </v>
     <v>       0.07760221      -0.07760221       0.07760221 </v>
     <v>       0.07760221       0.07760221      -0.07760221 </v>
    </varray>
   </crystal>
   <varray name="positions" >
    <v>       0.25000000       0.25000000       0.25000000 </v>
    <v>       0.75000000       0.25000000       0.25000000 </v>
    <v>       0.25000000       0.75000000       0.25000000 </v>
    <v>       0.75000000       0.75000000       0.25000000 </v>
    <v>       0.25000000       0.25000000       0.75000000 </v>
    <v>       0.75000000       0.25000000       0.75000000 </v>
    <v>       0.25000000       0.75000000       0.75000000 </v>
    <v>       0.75000000       0.75000000       0.75000000 </v>
    <v>       0.00000000       0.00000000       0.00000000 </v>
    <v>       0.50000000       0.00000000       0.00000000 </v>
    <v>       0.00000000       0.50000000       0.00000000 </v>
    <v>       0.50000000       0.50000000       0.00000000 </v>
    <v>       0.00000000       0.00000000       0.50000000 </v>
    <v>       0.50000000       0.00000000       0.50000000 </v>
    <v>       0.00000000       0.50000000       0.50000000 </v>
    <v>       0.50000000       0.50000000       0.50000000 </v>
   </varray>
  </structure>
  <varray name="forces" >
   <v>       0.00000000       0.00000000      -0.00000000 </v>
   <v>      -0.00000000      -0.00000000       0.00000000 </v>
   <v>      -0.00000000       0.00000000       0.00000000 </v>
   <v>      -0.00000000      -0.00000000      -0.00000000 </v>
   <v>       0.00000000       0.00000000       0.00000000 </v>
   <v>       0.00000000       0.00000000      -0.00000000 </v>
   <v>       0.00000000       0.00000000       0.00000000 </v>
   <v>      -0.00000000      -0.00000000       0.00000000 </v>
   <v>      -0.00000000      -0.00000000      -0.00000000 </v>
   <v>      -0.00000000       0.00000000      -0.00000000 </v>
   <v>      -0.00000000       0.00000000       0.00000000 </v>
   <v>      -0.00000000       0.00000000      -0.00000000 </v>
   <v>      -0.00000000      -0.00000000      -0.00000000 </v>
   <v>      -0.00000000       0.00000000      -0.00000000 </v>
   <v>      -0.00000000      -0.00000000       0.00000000 </v>
   <v>      -0.00000000       0.00000000      -0.00000000 </v>
  </varray>
  <varray name="stress" >
   <v>       0.00880838       0.00000000      -0.00000000 </v>
   <v>       0.00000000       0.00880838      -0.00000000 </v>
   <v>       0.00000000       0.00000000       0.00880838 </v>
  </varray>
  <energy>
   <i name="e_fr_energy">    -66.07523282 </i>
   <i name="e_wo_entrp">    -66.07523282 </i>
   <i name="e_0_energy">    -66.07523282 </i>
  </energy>
  <time name="totalsc">   41.03   41.42</time>
 </calculation>
 <structure>
  <crystal>
   <varray name="basis" >
    <v>       0.00000000       6.44333416       6.44333416 </v>
    <v>       6.44333416       0.00000000       6.44333416 </v>
    <v>       6.44333416       6.44333416       0.00000000 </v>
   </varray>
   <i name="volume">    535.01007502 </i>
   <varray name="rec_basis" >
    <v>      -0.07759958       0.07759958       0.07759958 </v>
    <v>       0.07759958      -0.07759958       0.07759958 </v>
    <v>       0.07759958       0.07759958      -0.07759958 </v>
   </varray>
  </crystal>
  <varray name="positions" >
   <v>       0.25000000       0.25000000       0.25000000 </v>
   <v>       0.75000000       0.25000000       0.25000000 </v>
   <v>       0.25000000       0.75000000       0.25000000 </v>
   <v>       0.75000000       0.75000000       0.25000000 </v>
   <v>       0.25000000       0.25000000       0.75000000 </v>
   <v>       0.75000000       0.25000000       0.75000000 </v>
   <v>       0.25000000       0.75000000       0.75000000 </v>
   <v>       0.75000000       0.75000000       0.75000000 </v>
   <v>       0.00000000       0.00000000       0.00000000 </v>
   <v>       0.50000000       0.00000000       0.00000000 </v>
   <v>       0.00000000       0.50000000       0.00000000 </v>
   <v>       0.50000000       0.50000000       0.00000000 </v>
   <v>       0.00000000       0.00000000       0.50000000 </v>
   <v>       0.50000000       0.00000000       0.50000000 </v>
   <v>       0.00000000       0.50000000       0.50000000 </v>
   <v>       0.50000000       0.50000000       0.50000000 </v>
  </varray>
 </structure>
 <varray name="forces" >
  <v>       0.00000000       0.00000000      -0.00000000 </v>
  <v>      -0.00000000       0.00000000       0.00000000 </v>
  <v>      -0.00000000       0.00000000      -0.00000000 </v>
  <v>       0.00000000      -0.00000000       0.00000000 </v>
  <v>       0.00000000      -0.00000000       0.00000000 </v>
  <v>      -0.00000000      -0.00000000       0.00000000 </v>
  <v>      -0.00000000       0.00000000      -0.00000000 </v>
  <v>      -0.00000000      -0.00000000      -0.00000000 </v>
  <v>       0.00000000       0.00000000      -0.00000000 </v>
  <v>      -0.00000000      -0.00000000       0.00000000 </v>
  <v>       0.00000000      -0.00000000       0.00000000 </v>
  <v>       0.00000000       0.00000000      -0.00000000 </v>
  <v>       0.00000000      -0.00000000       0.00000000 </v>
  <v>       0.00000000       0.00000000       0.00000000 </v>
  <v>      -0.00000000       0.00000000       0.00000000 </v>
  <v>      -0.00000000       0.00000000      -0.00000000 </v>
 </varray>
 <varray name="stress" >
  <v>       0.04793964       0.00000000      -0.00000000 </v>
  <v>       0.00000000       0.04793964       0.00000000 </v>
  <v>      -0.00000000       0.00000000       0.04793964 </v>
 </varray>
 <energy>
  <i name="e_fr_energy">    -66.07523467 </i>
  <i name="e_wo_entrp">    -66.07523467 </i>
  <i name="e_0_energy">    -66.07523467 </i>
 </energy>
 <time name="totalsc">    0.01    0.04</time>
 <structure>
  <crystal>
   <varray name="basis" >
    <v>       0.00000000       6.44377234       6.44377234 </v>
    <v>       6.44377234       0.00000000       6.44377234 </v>
    <v>       6.44377234       6.44377234       0.00000000 </v>
   </varray>
   <i name="volume">    535.11923328 </i>
   <varray name="rec_basis" >
    <v>      -0.07759430       0.07759430       0.07759430 </v>
    <v>       0.07759430      -0.07759430       0.07759430 </v>
    <v>       0.07759430       0.07759430      -0.07759430 </v>
   </varray>
  </crystal>
  <varray name="positions" >
   <v>       0.25000000       0.25000000       0.25000000 </v>
   <v>       0.75000000       0.25000000       0.25000000 </v>
   <v>       0.25000000       0.75000000       0.25000000 </v>
   <v>       0.75000000       0.75000000       0.25000000 </v>
   <v>       0.25000000       0.25000000       0.75000000 </v>
   <v>       0.75000000       0.25000000       0.75000000 </v>
   <v>       0.25000000       0.75000000       0.75000000 </v>
   <v>       0.75000000       0.75000000       0.75000000 </v>
   <v>       0.00000000       0.00000000       0.00000000 </v>
   <v>       0.50000000       0.00000000       0.00000000 </v>
   <v>       0.00000000       0.50000000       0.00000000 </v>
   <v>       0.50000000       0.50000000       0.00000000 </v>
   <v>       0.00000000       0.00000000       0.50000000 </v>
   <v>       0.50000000       0.00000000       0.50000000 </v>
   <v>       0.00000000       0.50000000       0.50000000 </v>
   <v>       0.50000000       0.50000000       0.50000000 </v>
  </varray>
 </structure>
 <varray name="forces" >
  <v>       0.00000000      -0.00000000       0.00000000 </v>
  <v>      -0.00000000      -0.00000000       0.00000000 </v>
  <v>       0.00000000      -0.00000000      -0.00000000 </v>
  <v>      -0.00000000      -0.00000000       0.00000000 </v>
  <v>       0.00000000       0.00000000       0.00000000 </v>
  <v>      -0.00000000       0.00000000      -0.00000000 </v>
  <v>       0.00000000      -0.00000000      -0.00000000 </v>
  <v>       0.00000000      -0.00000000       0.00000000 </v>
  <v>      -0.00000000       0.00000000      -0.00000000 </v>
  <v>       0.00000000      -0.00000000      -0.00000000 </v>
  <v>      -0.00000000       0.00000000      -0.00000000 </v>
  <v>       0.00000000       0.00000000      -0.00000000 </v>
  <v>      -0.00000000       0.00000000       0.00000000 </v>
  <v>       0.00000000       0.00000000      -0.00000000 </v>
  <v>      -0.00000000      -0.00000000       0.00000000 </v>
  <v>       0.00000000      -0.00000000       0.00000000 </v>
 </varray>
 <varray name="stress" >
  <v>       0.04792863       0.00000000      -0.00000000 </v>
  <v>       0.00000000       0.04792863       0.00000000 </v>
  <v>      -0.00000000       0.00000000       0.04792863 </v>
 </varray>
 <energy>
  <i name="e_fr_energy">    -66.07523794 </i>
  <i name="e_wo_entrp">    -66.07523794 </i>
  <i name="e_0_energy">    -66.07523794 </i>
 </energy>
 <time name="totalsc">    0.01    0.03</time>
 <structure>
  <crystal>
   <varray name="basis" >
    <v>       0.00000000       6.44464870       6.44464870 </v>
    <v>       6.44464870       0.00000000       6.44464870 </v>
    <v>       6.44464870       6.44464870       0.00000000 </v>
   </varray>
   <i name="volume">    535.33759436 </i>
   <varray name="rec_basis" >
    <v>      -0.07758375       0.07758375       0.07758375 </v>
    <v>       0.07758375      -0.07758375       0.07758375 </v>
    <v>       0.07758375       0.07758375      -0.07758375 </v>
   </varray>
  </crystal>
  <varray name="positions" >
   <v>       0.25000000       0.25000000       0.25000000 </v>
   <v>       0.75000000       0.25000000       0.25000000 </v>
   <v>       0.25000000       0.75000000       0.25000000 </v>
   <v>       0.75000000       0.75000000       0.25000000 </v>
   <v>       0.25000000       0.25000000       0.75000000 </v>
   <v>       0.75000000       0.25000000       0.75000000 </v>
   <v>       0.25000000       0.75000000       0.75000000 </v>
   <v>       0.75000000       0.75000000       0.75000000 </v>
   <v>       0.00000000       0.00000000       0.00000000 </v>
   <v>       0.50000000       0.00000000       0.00000000 </v>
   <v>       0.00000000       0.50000000       0.00000000 </v>
   <v>       0.50000000       0.50000000       0.00000000 </v>
   <v>       0.00000000       0.00000000       0.50000000 </v>
   <v>       0.50000000       0.00000000       0.50000000 </v>
   <v>       0.00000000       0.50000000       0.50000000 </v>
   <v>       0.50000000       0.50000000       0.50000000 </v>
  </varray>
 </structure>
 <varray name="forces" >
  <v>      -0.00000000      -0.00000000      -0.00000000 </v>
  <v>       0.00000000       0.00000000       0.00000000 </v>
  <v>       0.00000000       0.00000000       0.00000000 </v>
  <v>       0.00000000       0.00000000      -0.00000000 </v>
  <v>      -0.00000000      -0.00000000      -0.00000000 </v>
  <v>       0.00000000       0.00000000       0.00000000 </v>
  <v>       0.00000000      -0.00000000      -0.00000000 </v>
  <v>      -0.00000000       0.00000000      -0.00000000 </v>
  <v>       0.00000000      -0.00000000       0.00000000 </v>
  <v>      -0.00000000      -0.00000000      -0.00000000 </v>
  <v>      -0.00000000      -0.00000000      -0.00000000 </v>
  <v>      -0.00000000       0.00000000      -0.00000000 </v>
  <v>      -0.00000000      -0.00000000       0.00000000 </v>
  <v>       0.00000000       0.00000000       0.00000000 </v>
  <v>       0.00000000       0.00000000      -0.00000000 </v>
  <v>      -0.00000000      -0.00000000       0.00000000 </v>
 </varray>
 <varray name="stress" >
  <v>       0.04790629      -0.00000000      -0.00000000 </v>
  <v>      -0.00000000       0.04790629      -0.00000000 </v>
  <v>      -0.00000000      -0.00000000       0.04790629 </v>
 </varray>
 <energy>
  <i name="e_fr_energy">    -66.07524447 </i>
  <i name="e_wo_entrp">    -66.07524447 </i>
  <i name="e_0_energy">    -66.07524447 </i>
 </energy>
 <time name="totalsc">    0.01    0.03</time>
 <structure>
  <crystal>
   <varray name="basis" >
    <v>       0.00000000       6.44640143       6.44640143 </v>
    <v>       6.44640143       0.00000000       6.44640143 </v>
    <v>       6.44640143       6.44640143       0.00000000 </v>
   </varray>
   <i name="volume">    535.77449470 </i>
   <varray name="rec_basis" >
    <v>      -0.07756265       0.07756265       0.07756265 </v>
    <v>       0.07756265      -0.07756265       0.07756265 </v>
    <v>       0.07756265       0.07756265      -0.07756265 </v>
   </varray>
  </crystal>
  <varray name="positions" >
   <v>       0.25000000       0.25000000       0.25000000 </v>
   <v>       0.75000000       0.25000000       0.25000000 </v>
   <v>       0.25000000       0.75000000       0.25000000 </v>
   <v>       0.75000000       0.75000000       0.25000000 </v>
   <v>       0.25000000       0.25000000       0.75000000 </v>
   <v>       0.75000000       0.25000000       0.75000000 </v>
   <v>       0.25000000       0.75000000       0.75000000 </v>
   <v>       0.75000000       0.75000000       0.75000000 </v>
   <v>       0.00000000       0.00000000       0.00000000 </v>
   <v>       0.50000000       0.00000000       0.00000000 </v>
   <v>       0.00000000       0.50000000       0.00000000 </v>
   <v>       0.50000000       0.50000000       0.00000000 </v>
   <v>       0.00000000       0.00000000       0.50000000 </v>
   <v>       0.50000000       0.00000000       0.50000000 </v>
   <v>       0.00000000       0.50000000       0.50000000 </v>
   <v>       0.50000000       0.50000000       0.50000000 </v>
  </varray>
 </structure>
 <varray name="forces" >
  <v>       0.00000000       0.00000000       0.00000000 </v>
  <v>       0.00000000       0.00000000      -0.00000000 </v>
  <v>       0.00000000      -0.00000000       0.00000000 </v>
  <v>       0.00000000       0.00000000      -0.00000000 </v>
  <v>       0.00000000      -0.00000000       0.00000000 </v>
  <v>      -0.00000000      -0.00000000      -0.00000000 </v>
  <v>      -0.00000000      -0.00000000       0.00000000 </v>
  <v>      -0.00000000       0.00000000       0.00000000 </v>
  <v>      -0.00000000      -0.00000000      -0.00000000 </v>
  <v>      -0.00000000      -0.00000000       0.00000000 </v>
  <v>      -0.00000000       0.00000000      -0.00000000 </v>
  <v>      -0.00000000       0.00000000       0.00000000 </v>
  <v>      -0.00000000      -0.00000000      -0.00000000 </v>
  <v>      -0.00000000      -0.00000000      -0.00000000 </v>
  <v>      -0.00000000       0.00000000      -0.00000000 </v>
  <v>       0.00000000       0.00000000      -0.00000000 </v>
 </varray>
 <varray name="stress" >
  <v>       0.04786024       0.00000000       0.00000000 </v>
  <v>       0.00000000       0.04786024       0.00000000 </v>
  <v>       0.00000000       0.00000000       0.04786024 </v>
 </varray>
 <energy>
  <i name="e_fr_energy">    -66.07525752 </i>
  <i name="e_wo_entrp">    -66.07525752 </i>
  <i name="e_0_energy">    -66.07525752 </i>
 </energy>
 <time name="totalsc">    0.01    0.03</time>
 <structure>
  <crystal>
   <varray name="basis" >
    <v>       0.00000000       6.44990689       6.44990689 </v>
    <v>       6.44990689       0.00000000       6.44990689 </v>
    <v>       6.44990689       6.44990689       0.00000000 </v>
   </varray>
   <i name="volume">    536.64900838 </i>
   <varray name="rec_basis" >
    <v>      -0.07752050       0.07752050       0.07752050 </v>
    <v>       0.07752050      -0.07752050       0.07752050 </v>
    <v>       0.07752050       0.07752050      -0.07752050 </v>
   </varray>
  </crystal>
  <varray name="positions" >
   <v>       0.25000000       0.25000000       0.25000000 </v>
   <v>       0.75000000       0.25000000       0.25000000 </v>
   <v>       0.25000000       0.75000000       0.25000000 </v>
   <v>       0.75000000       0.75000000       0.25000000 </v>
   <v>       0.25000000       0.25000000       0.75000000 </v>
   <v>       0.75000000       0.25000000       0.75000000 </v>
   <v>       0.25000000       0.75000000       0.75000000 </v>
   <v>       0.75000000       0.75000000       0.75000000 </v>
   <v>       0.00000000       0.00000000       0.00000000 </v>
   <v>       0.50000000       0.00000000       0.00000000 </v>
   <v>       0.00000000       0.50000000       0.00000000 </v>
   <v>       0.50000000       0.50000000       0.00000000 </v>
   <v>       0.00000000       0.00000000       0.50000000 </v>
   <v>       0.50000000       0.00000000       0.50000000 </v>
   <v>       0.00000000       0.50000000       0.50000000 </v>
   <v>       0.50000000       0.50000000       0.50000000 </v>
  </varray>
 </structure>
 <varray name="forces" >
  <v>       0.00000000       0.00000000       0.00000000 </v>
  <v>      -0.00000000      -0.00000000      -0.00000000 </v>
  <v>       0.00000000      -0.00000000      -0.00000000 </v>
  <v>      -0.00000000       0.00000000      -0.00000000 </v>
  <v>       0.00000000       0.00000000       0.00000000 </v>
  <v>      -0.00000000      -0.00000000      -0.00000000 </v>
  <v>       0.00000000       0.00000000       0.00000000 </v>
  <v>       0.00000000       0.00000000      -0.00000000 </v>
  <v>      -0.00000000      -0.00000000       0.00000000 </v>
  <v>      -0.00000000       0.00000000      -0.00000000 </v>
  <v>       0.00000000      -0.00000000       0.00000000 </v>
  <v>      -0.00000000      -0.00000000       0.00000000 </v>
  <v>       0.00000000      -0.00000000      -0.00000000 </v>
  <v>      -0.00000000      -0.00000000      -0.00000000 </v>
  <v>      -0.00000000       0.00000000      -0.00000000 </v>
  <v>       0.00000000       0.00000000       0.00000000 </v>
 </varray>
 <varray name="stress" >
  <v>       0.04776279       0.00000000       0.00000000 </v>
  <v>       0.00000000       0.04776279       0.00000000 </v>
  <v>       0.00000000       0.00000000       0.04776279 </v>
 </varray>
 <energy>
  <i name="e_fr_energy">    -66.07528362 </i>
  <i name="e_wo_entrp">    -66.07528362 </i>
  <i name="e_0_energy">    -66.07528362 </i>
 </energy>
 <time name="totalsc">    0.01    0.03</time>
 <structure>
  <crystal>
   <varray name="basis" >
    <v>       0.00000000       6.45691780       6.45691780 </v>
    <v>       6.45691780       0.00000000       6.45691780 </v>
    <v>       6.45691780       6.45691780       0.00000000 </v>
   </varray>
   <i name="volume">    538.40088954 </i>
   <varray name="rec_basis" >
    <v>      -0.07743633       0.07743633       0.07743633 </v>
    <v>       0.07743633      -0.07743633       0.07743633 </v>
    <v>       0.07743633       0.07743633      -0.07743633 </v>
   </varray>
  </crystal>
  <varray name="positions" >
   <v>       0.25000000       0.25000000       0.25000000 </v>
   <v>       0.75000000       0.25000000       0.25000000 </v>
   <v>       0.25000000       0.75000000       0.25000000 </v>
   <v>       0.75000000       0.75000000       0.25000000 </v>
   <v>       0.25000000       0.25000000       0.75000000 </v>
   <v>       0.75000000       0.25000000       0.75000000 </v>
   <v>       0.25000000       0.75000000       0.75000000 </v>
   <v>       0.75000000       0.75000000       0.75000000 </v>
   <v>       0.00000000       0.00000000       0.00000000 </v>
   <v>       0.50000000       0.00000000       0.00000000 </v>
   <v>       0.00000000       0.50000000       0.00000000 </v>
   <v>       0.50000000       0.50000000       0.00000000 </v>
   <v>       0.00000000       0.00000000       0.50000000 </v>
   <v>       0.50000000       0.00000000       0.50000000 </v>
   <v>       0.00000000       0.50000000       0.50000000 </v>
   <v>       0.50000000       0.50000000       0.50000000 </v>
  </varray>
 </structure>
 <varray name="forces" >
  <v>       0.00000000       0.00000000      -0.00000000 </v>
  <v>       0.00000000      -0.00000000       0.00000000 </v>
  <v>       0.00000000       0.00000000      -0.00000000 </v>
  <v>       0.00000000       0.00000000      -0.00000000 </v>
  <v>      -0.00000000      -0.00000000      -0.00000000 </v>
  <v>       0.00000000      -0.00000000       0.00000000 </v>
  <v>      -0.00000000       0.00000000      -0.00000000 </v>
  <v>      -0.00000000       0.00000000      -0.00000000 </v>
  <v>      -0.00000000       0.00000000       0.00000000 </v>
  <v>      -0.00000000      -0.00000000      -0.00000000 </v>
  <v>      -0.00000000       0.00000000      -0.00000000 </v>
  <v>       0.00000000      -0.00000000       0.00000000 </v>
  <v>      -0.00000000       0.00000000       0.00000000 </v>
  <v>       0.00000000       0.00000000      -0.00000000 </v>
  <v>      -0.00000000      -0.00000000       0.00000000 </v>
  <v>       0.00000000      -0.00000000      -0.00000000 </v>
 </varray>
 <varray name="stress" >
  <v>       0.04754664       0.00000000       0.00000000 </v>
  <v>       0.00000000       0.04754664       0.00000000 </v>
  <v>       0.00000000       0.00000000       0.04754664 </v>
 </varray>
 <energy>
  <i name="e_fr_energy">    -66.07533573 </i>
  <i name="e_wo_entrp">    -66.07533573 </i>
  <i name="e_0_energy">    -66.07533573 </i>
 </energy>
 <time name="totalsc">    0.01    0.03</time>
 <structure>
  <crystal>
   <varray name="basis" >
    <v>       0.00000000       6.47093962       6.47093962 </v>
    <v>       6.47093962       0.00000000       6.47093962 </v>
    <v>       6.47093962       6.47093962       0.00000000 </v>
   </varray>
   <i name="volume">    541.91608153 </i>
   <varray name="rec_basis" >
    <v>      -0.07726853       0.07726853       0.07726853 </v>
    <v>       0.07726853      -0.07726853       0.07726853 </v>
    <v>       0.07726853       0.07726853      -0.07726853 </v>
   </varray>
  </crystal>
  <varray name="positions" >
   <v>       0.25000000       0.25000000       0.25000000 </v>
   <v>       0.75000000       0.25000000       0.25000000 </v>
   <v>       0.25000000       0.75000000       0.25000000 </v>
   <v>       0.75000000       0.75000000       0.25000000 </v>
   <v>       0.25000000       0.25000000       0.75000000 </v>
   <v>       0.75000000       0.25000000       0.75000000 </v>
   <v>       0.25000000       0.75000000       0.75000000 </v>
   <v>       0.75000000       0.75000000       0.75000000 </v>
   <v>       0.00000000       0.00000000       0.00000000 </v>
   <v>       0.50000000       0.00000000       0.00000000 </v>
   <v>       0.00000000       0.50000000       0.00000000 </v>
   <v>       0.50000000       0.50000000       0.00000000 </v>
   <v>       0.00000000       0.00000000       0.50000000 </v>
   <v>       0.50000000       0.00000000       0.50000000 </v>
   <v>       0.00000000       0.50000000       0.50000000 </v>
   <v>       0.50000000       0.50000000       0.50000000 </v>
  </varray>
 </structure>
 <varray name="forces" >
  <v>      -0.00000000       0.00000000      -0.00000000 </v>
  <v>      -0.00000000      -0.00000000       0.00000000 </v>
  <v>      -0.00000000      -0.00000000       0.00000000 </v>
  <v>      -0.00000000      -0.00000000      -0.00000000 </v>
  <v>      -0.00000000       0.00000000       0.00000000 </v>
  <v>       0.00000000      -0.00000000       0.00000000 </v>
  <v>       0.00000000       0.00000000       0.00000000 </v>
  <v>       0.00000000      -0.00000000      -0.00000000 </v>
  <v>      -0.00000000       0.00000000      -0.00000000 </v>
  <v>       0.00000000      -0.00000000      -0.00000000 </v>
  <v>      -0.00000000      -0.00000000       0.00000000 </v>
  <v>      -0.00000000       0.00000000      -0.00000000 </v>
  <v>       0.00000000       0.00000000      -0.00000000 </v>
  <v>       0.00000000      -0.00000000       0.00000000 </v>
  <v>       0.00000000       0.00000000      -0.00000000 </v>
  <v>       0.00000000      -0.00000000      -0.00000000 </v>
 </varray>
 <varray name="stress" >
  <v>       0.04703111      -0.00000000      -0.00000000 </v>
  <v>      -0.00000000       0.04703111      -0.00000000 </v>
  <v>      -0.00000000      -0.00000000       0.04703111 </v>
 </varray>
 <energy>
  <i name="e_fr_energy">    -66.07543950 </i>
  <i name="e_wo_entrp">    -66.07543950 </i>
  <i name="e_0_energy">    -66.07543950 </i>
 </energy>
 <time name="totalsc">    0.01    0.03</time>
 <structure>
  <crystal>
   <varray name="basis" >
    <v>       0.00000000       6.49898327       6.49898327 </v>
    <v>       6.49898327       0.00000000       6.49898327 </v>
    <v>       6.49898327       6.49898327       0.00000000 </v>
   </varray>
   <i name="volume">    548.99230002 </i>
   <varray name="rec_basis" >
    <v>      -0.07693511       0.07693511       0.07693511 </v>
    <v>       0.07693511      -0.07693511       0.07693511 </v>
    <v>       0.07693511       0.07693511      -0.07693511 </v>
   </varray>
  </crystal>
  <varray name="positions" >
   <v>       0.25000000       0.25000000       0.25000000 </v>
   <v>       0.75000000       0.25000000       0.25000000 </v>
   <v>       0.25000000       0.75000000       0.25000000 </v>
   <v>       0.75000000       0.75000000       0.25000000 </v>
   <v>       0.25000000       0.25000000       0.75000000 </v>
   <v>       0.75000000       0.25000000       0.75000000 </v>
   <v>       0.25000000       0.75000000       0.75000000 </v>
   <v>       0.75000000       0.75000000       0.75000000 </v>
   <v>       0.00000000       0.00000000       0.00000000 </v>
   <v>       0.50000000       0.00000000       0.00000000 </v>
   <v>       0.00000000       0.50000000       0.00000000 </v>
   <v>       0.50000000       0.50000000       0.00000000 </v>
   <v>       0.00000000       0.00000000       0.50000000 </v>
   <v>       0.50000000       0.00000000       0.50000000 </v>
   <v>       0.00000000       0.50000000       0.50000000 </v>
   <v>       0.50000000       0.50000000       0.50000000 </v>
  </varray>
 </structure>
 <varray name="forces" >
  <v>      -0.00000000      -0.00000000      -0.00000000 </v>
  <v>      -0.00000000      -0.00000000      -0.00000000 </v>
  <v>      -0.00000000      -0.00000000       0.00000000 </v>
  <v>      -0.00000000      -0.00000000       0.00000000 </v>
  <v>       0.00000000       0.00000000       0.00000000 </v>
  <v>       0.00000000       0.00000000      -0.00000000 </v>
  <v>       0.00000000       0.00000000       0.00000000 </v>
  <v>       0.00000000       0.00000000       0.00000000 </v>
  <v>      -0.00000000       0.00000000      -0.00000000 </v>
  <v>      -0.00000000      -0.00000000      -0.00000000 </v>
  <v>      -0.00000000      -0.00000000       0.00000000 </v>
  <v>       0.00000000      -0.00000000       0.00000000 </v>
  <v>       0.00000000      -0.00000000      -0.00000000 </v>
  <v>       0.00000000       0.00000000       0.00000000 </v>
  <v>      -0.00000000      -0.00000000       0.00000000 </v>
  <v>       0.00000000      -0.00000000       0.00000000 </v>
 </varray>
 <varray name="stress" >
  <v>       0.04568219       0.00000000      -0.00000000 </v>
  <v>       0.00000000       0.04568219       0.00000000 </v>
  <v>      -0.00000000       0.00000000       0.04568219 </v>
 </varray>
 <energy>
  <i name="e_fr_energy">    -66.07564439 </i>
  <i name="e_wo_entrp">    -66.07564439 </i>
  <i name="e_0_energy">    -66.07564439 </i>
 </energy>
 <time name="totalsc">    0.01    0.03</time>
 <structure>
  <crystal>
   <varray name="basis" >
    <v>       0.00000000       6.55507057       6.55507057 </v>
    <v>       6.55507057       0.00000000       6.55507057 </v>
    <v>       6.55507057       6.55507057       0.00000000 </v>
   </varray>
   <i name="volume">    563.32900128 </i>
   <varray name="rec_basis" >
    <v>      -0.07627683       0.07627683       0.07627683 </v>
    <v>       0.07627683      -0.07627683       0.07627683 </v>
    <v>       0.07627683       0.07627683      -0.07627683 </v>
   </varray>
  </crystal>
  <varray name="positions" >
   <v>       0.25000000       0.25000000       0.25000000 </v>
   <v>       0.75000000       0.25000000       0.25000000 </v>
   <v>       0.25000000       0.75000000       0.25000000 </v>
   <v>       0.75000000       0.75000000       0.25000000 </v>
   <v>       0.25000000       0.25000000       0.75000000 </v>
   <v>       0.75000000       0.25000000       0.75000000 </v>
   <v>       0.25000000       0.75000000       0.75000000 </v>
   <v>       0.75000000       0.75000000       0.75000000 </v>
   <v>       0.00000000       0.00000000       0.00000000 </v>
   <v>       0.50000000       0.00000000       0.00000000 </v>
   <v>       0.00000000       0.50000000       0.00000000 </v>
   <v>       0.50000000       0.50000000       0.00000000 </v>
   <v>       0.00000000       0.00000000       0.50000000 </v>
   <v>       0.50000000       0.00000000       0.50000000 </v>
   <v>       0.00000000       0.50000000       0.50000000 </v>
   <v>       0.50000000       0.50000000       0.50000000 </v>
  </varray>
 </structure>
 <varray name="forces" >
  <v>      -0.00000000      -0.00000000      -0.00000000 </v>
  <v>      -0.00000000       0.00000000       0.00000000 </v>
  <v>      -0.00000000      -0.00000000      -0.00000000 </v>
  <v>      -0.00000000      -0.00000000      -0.00000000 </v>
  <v>       0.00000000       0.00000000       0.00000000 </v>
  <v>       0.00000000       0.00000000       0.00000000 </v>
  <v>      -0.00000000      -0.00000000      -0.00000000 </v>
  <v>       0.00000000       0.00000000       0.00000000 </v>
  <v>      -0.00000000      -0.00000000       0.00000000 </v>
  <v>      -0.00000000       0.00000000       0.00000000 </v>
  <v>       0.00000000      -0.00000000       0.00000000 </v>
  <v>       0.00000000      -0.00000000       0.00000000 </v>
  <v>      -0.00000000      -0.00000000       0.00000000 </v>
  <v>       0.00000000       0.00000000       0.00000000 </v>
  <v>       0.00000000       0.00000000       0.00000000 </v>
  <v>       0.00000000      -0.00000000      -0.00000000 </v>
 </varray>
 <varray name="stress" >
  <v>       0.04185164       0.00000000       0.00000000 </v>
  <v>       0.00000000       0.04185164       0.00000000 </v>
  <v>       0.00000000       0.00000000       0.04185164 </v>
 </varray>
 <energy>
  <i name="e_fr_energy">    -66.07603702 </i>
  <i name="e_wo_entrp">    -66.07603702 </i>
  <i name="e_0_energy">    -66.07603702 </i>
 </energy>
 <time name="totalsc">    0.01    0.03</time>
 <structure>
  <crystal>
   <varray name="basis" >
    <v>       0.00000000       6.66724516       6.66724516 </v>
    <v>       6.66724516       0.00000000       6.66724516 </v>
    <v>       6.66724516       6.66724516       0.00000000 </v>
   </varray>
   <i name="volume">    592.74687135 </i>
   <varray name="rec_basis" >
    <v>      -0.07499349       0.07499349       0.07499349 </v>
    <v>       0.07499349      -0.07499349       0.07499349 </v>
    <v>       0.07499349       0.07499349      -0.07499349 </v>
   </varray>
  </crystal>
  <varray name="positions" >
   <v>       0.25000000       0.25000000       0.25000000 </v>
   <v>       0.75000000       0.25000000       0.25000000 </v>
   <v>       0.25000000       0.75000000       0.25000000 </v>
   <v>       0.75000000       0.75000000       0.25000000 </v>
   <v>       0.25000000       0.25000000       0.75000000 </v>
   <v>       0.75000000       0.25000000       0.75000000 </v>
   <v>       0.25000000       0.75000000       0.75000000 </v>
   <v>       0.75000000       0.75000000       0.75000000 </v>
   <v>       0.00000000       0.00000000       0.00000000 </v>
   <v>       0.50000000       0.00000000       0.00000000 </v>
   <v>       0.00000000       0.50000000       0.00000000 </v>
   <v>       0.50000000       0.50000000       0.00000000 </v>
   <v>       0.00000000       0.00000000       0.50000000 </v>
   <v>       0.50000000       0.00000000       0.50000000 </v>
   <v>       0.00000000       0.50000000       0.50000000 </v>
   <v>       0.50000000       0.50000000       0.50000000 </v>
  </varray>
 </structure>
 <varray name="forces" >
  <v>      -0.00000000       0.00000000      -0.00000000 </v>
  <v>       0.00000000       0.00000000       0.00000000 </v>
  <v>       0.00000000      -0.00000000      -0.00000000 </v>
  <v>       0.00000000       0.00000000       0.00000000 </v>
  <v>      -0.00000000      -0.00000000       0.00000000 </v>
  <v>      -0.00000000       0.00000000       0.00000000 </v>
  <v>       0.00000000      -0.00000000       0.00000000 </v>
  <v>      -0.00000000      -0.00000000       0.00000000 </v>
  <v>       0.00000000       0.00000000       0.00000000 </v>
  <v>      -0.00000000       0.00000000       0.00000000 </v>
  <v>       0.00000000       0.00000000       0.00000000 </v>
  <v>      -0.00000000      -0.00000000      -0.00000000 </v>
  <v>      -0.00000000       0.00000000       0.00000000 </v>
  <v>       0.00000000       0.00000000       0.00000000 </v>
  <v>      -0.00000000       0.00000000      -0.00000000 </v>
  <v>      -0.00000000      -0.00000000       0.00000000 </v>
 </varray>
 <varray name="stress" >
  <v>       0.03095017       0.00000000      -0.00000000 </v>
  <v>       0.00000000       0.03095017       0.00000000 </v>
  <v>      -0.00000000       0.00000000       0.03095017 </v>
 </varray>
 <energy>
  <i name="e_fr_energy">    -66.07670984 </i>
  <i name="e_wo_entrp">    -66.07670984 </i>
  <i name="e_0_energy">    -66.07670984 </i>
 </energy>
 <time name="totalsc">    0.01    0.03</time>
 <structure>
  <crystal>
   <varray name="basis" >
    <v>       0.00000000       6.89159435       6.89159435 </v>
    <v>       6.89159435       0.00000000       6.89159435 </v>
    <v>       6.89159435       6.89159435       0.00000000 </v>
   </varray>
   <i name="volume">    654.61976506 </i>
   <varray name="rec_basis" >
    <v>      -0.07255215       0.07255215       0.07255215 </v>
    <v>       0.07255215      -0.07255215       0.07255215 </v>
    <v>       0.07255215       0.07255215      -0.07255215 </v>
   </varray>
  </crystal>
  <varray name="positions" >
   <v>       0.25000000       0.25000000       0.25000000 </v>
   <v>       0.75000000       0.25000000       0.25000000 </v>
   <v>       0.25000000       0.75000000       0.25000000 </v>
   <v>       0.75000000       0.75000000       0.25000000 </v>
   <v>       0.25000000       0.25000000       0.75000000 </v>
   <v>       0.75000000       0.25000000       0.75000000 </v>
   <v>       0.25000000       0.75000000       0.75000000 </v>
   <v>       0.75000000       0.75000000       0.75000000 </v>
   <v>       0.00000000       0.00000000       0.00000000 </v>
   <v>       0.50000000       0.00000000       0.00000000 </v>
   <v>       0.00000000       0.50000000       0.00000000 </v>
   <v>       0.50000000       0.50000000       0.00000000 </v>
   <v>       0.00000000       0.00000000       0.50000000 </v>
   <v>       0.50000000       0.00000000       0.50000000 </v>
   <v>       0.00000000       0.50000000       0.50000000 </v>
   <v>       0.50000000       0.50000000       0.50000000 </v>
  </varray>
 </structure>
 <varray name="forces" >
  <v>      -0.00000000      -0.00000000       0.00000000 </v>
  <v>      -0.00000000       0.00000000       0.00000000 </v>
  <v>       0.00000000      -0.00000000      -0.00000000 </v>
  <v>       0.00000000       0.00000000       0.00000000 </v>
  <v>      -0.00000000      -0.00000000      -0.00000000 </v>
  <v>      -0.00000000       0.00000000       0.00000000 </v>
  <v>       0.00000000      -0.00000000      -0.00000000 </v>
  <v>       0.00000000       0.00000000       0.00000000 </v>
  <v>       0.00000000      -0.00000000      -0.00000000 </v>
  <v>      -0.00000000       0.00000000      -0.00000000 </v>
  <v>      -0.00000000       0.00000000      -0.00000000 </v>
  <v>      -0.00000000      -0.00000000      -0.00000000 </v>
  <v>      -0.00000000       0.00000000      -0.00000000 </v>
  <v>       0.00000000       0.00000000      -0.00000000 </v>
  <v>      -0.00000000       0.00000000      -0.00000000 </v>
  <v>       0.00000000      -0.00000000      -0.00000000 </v>
 </varray>
 <varray name="stress" >
  <v>       0.00643661      -0.00000000       0.00000000 </v>
  <v>      -0.00000000       0.00643661       0.00000000 </v>
  <v>       0.00000000       0.00000000       0.00643661 </v>
 </varray>
 <energy>
  <i name="e_fr_energy">    -66.07741609 </i>
  <i name="e_wo_entrp">    -66.07741609 </i>
  <i name="e_0_energy">    -66.07741609 </i>
 </energy>
 <time name="totalsc">    0.01    0.03</time>
 <structure>
  <crystal>
   <varray name="basis" >
    <v>       0.00000000       6.95848482       6.95848482 </v>
    <v>       6.95848482       0.00000000       6.95848482 </v>
    <v>       6.95848482       6.95848482       0.00000000 </v>
   </varray>
   <i name="volume">    673.86677996 </i>
   <varray name="rec_basis" >
    <v>      -0.07185472       0.07185472       0.07185472 </v>
    <v>       0.07185472      -0.07185472       0.07185472 </v>
    <v>       0.07185472       0.07185472      -0.07185472 </v>
   </varray>
  </crystal>
  <varray name="positions" >
   <v>       0.25000000       0.25000000       0.25000000 </v>
   <v>       0.75000000       0.25000000       0.25000000 </v>
   <v>       0.25000000       0.75000000       0.25000000 </v>
   <v>       0.75000000       0.75000000       0.25000000 </v>
   <v>       0.25000000       0.25000000       0.75000000 </v>
   <v>       0.75000000       0.25000000       0.75000000 </v>
   <v>       0.25000000       0.75000000       0.75000000 </v>
   <v>       0.75000000       0.75000000       0.75000000 </v>
   <v>       0.00000000       0.00000000       0.00000000 </v>
   <v>       0.50000000       0.00000000       0.00000000 </v>
   <v>       0.00000000       0.50000000       0.00000000 </v>
   <v>       0.50000000       0.50000000       0.00000000 </v>
   <v>       0.00000000       0.00000000       0.50000000 </v>
   <v>       0.50000000       0.00000000       0.50000000 </v>
   <v>       0.00000000       0.50000000       0.50000000 </v>
   <v>       0.50000000       0.50000000       0.50000000 </v>
  </varray>
 </structure>
 <varray name="forces" >
  <v>       0.00000000       0.00000000       0.00000000 </v>
  <v>      -0.00000000       0.00000000       0.00000000 </v>
  <v>       0.00000000      -0.00000000      -0.00000000 </v>
  <v>      -0.00000000       0.00000000       0.00000000 </v>
  <v>      -0.00000000       0.00000000       0.00000000 </v>
  <v>      -0.00000000       0.00000000      -0.00000000 </v>
  <v>      -0.00000000       0.00000000      -0.00000000 </v>
  <v>      -0.00000000      -0.00000000      -0.00000000 </v>
  <v>       0.00000000      -0.00000000       0.00000000 </v>
  <v>       0.00000000       0.00000000      -0.00000000 </v>
  <v>      -0.00000000       0.00000000       0.00000000 </v>
  <v>       0.00000000      -0.00000000       0.00000000 </v>
  <v>       0.00000000       0.00000000      -0.00000000 </v>
  <v>      -0.00000000       0.00000000       0.00000000 </v>
  <v>       0.00000000      -0.00000000       0.00000000 </v>
  <v>      -0.00000000      -0.00000000      -0.00000000 </v>
 </varray>
 <varray name="stress" >
  <v>       0.00047479       0.00000000       0.00000000 </v>
  <v>       0.00000000       0.00047479      -0.00000000 </v>
  <v>       0.00000000      -0.00000000       0.00047479 </v>
 </varray>
 <energy>
  <i name="e_fr_energy">    -66.07745649 </i>
  <i name="e_wo_entrp">    -66.07745649 </i>
  <i name="e_0_energy">    -66.07745649 </i>
 </energy>
 <time name="totalsc">    0.01    0.03</time>
 <structure>
  <crystal>
   <varray name="basis" >
    <v>       0.00000000       6.96407888       6.96407888 </v>
    <v>       6.96407888       0.00000000       6.96407888 </v>
    <v>       6.96407888       6.96407888       0.00000000 </v>
   </varray>
   <i name="volume">    675.49329131 </i>
   <varray name="rec_basis" >
    <v>      -0.07179700       0.07179700       0.07179700 </v>
    <v>       0.07179700      -0.07179700       0.07179700 </v>
    <v>       0.07179700       0.07179700      -0.07179700 </v>
   </varray>
  </crystal>
  <varray name="positions" >
   <v>       0.25000000       0.25000000       0.25000000 </v>
   <v>       0.75000000       0.25000000       0.25000000 </v>
   <v>       0.25000000       0.75000000       0.25000000 </v>
   <v>       0.75000000       0.75000000       0.25000000 </v>
   <v>       0.25000000       0.25000000       0.75000000 </v>
   <v>       0.75000000       0.25000000       0.75000000 </v>
   <v>       0.25000000       0.75000000       0.75000000 </v>
   <v>       0.75000000       0.75000000       0.75000000 </v>
   <v>       0.00000000       0.00000000       0.00000000 </v>
   <v>       0.50000000       0.00000000       0.00000000 </v>
   <v>       0.00000000       0.50000000       0.00000000 </v>
   <v>       0.50000000       0.50000000       0.00000000 </v>
   <v>       0.00000000       0.00000000       0.50000000 </v>
   <v>       0.50000000       0.00000000       0.50000000 </v>
   <v>       0.00000000       0.50000000       0.50000000 </v>
   <v>       0.50000000       0.50000000       0.50000000 </v>
  </varray>
 </structure>
 <varray name="forces" >
  <v>      -0.00000000       0.00000000       0.00000000 </v>
  <v>       0.00000000      -0.00000000      -0.00000000 </v>
  <v>      -0.00000000      -0.00000000       0.00000000 </v>
  <v>      -0.00000000      -0.00000000       0.00000000 </v>
  <v>       0.00000000       0.00000000       0.00000000 </v>
  <v>      -0.00000000      -0.00000000      -0.00000000 </v>
  <v>      -0.00000000      -0.00000000       0.00000000 </v>
  <v>      -0.00000000       0.00000000       0.00000000 </v>
  <v>      -0.00000000       0.00000000       0.00000000 </v>
  <v>       0.00000000       0.00000000      -0.00000000 </v>
  <v>       0.00000000       0.00000000      -0.00000000 </v>
  <v>      -0.00000000      -0.00000000      -0.00000000 </v>
  <v>      -0.00000000       0.00000000      -0.00000000 </v>
  <v>      -0.00000000       0.00000000      -0.00000000 </v>
  <v>      -0.00000000       0.00000000      -0.00000000 </v>
  <v>      -0.00000000      -0.00000000      -0.00000000 </v>
 </varray>
 <varray name="stress" >
  <v>       0.00002259       0.00000000      -0.00000000 </v>
  <v>       0.00000000       0.00002259      -0.00000000 </v>
  <v>      -0.00000000      -0.00000000       0.00002259 </v>
 </varray>
 <energy>
  <i name="e_fr_energy">    -66.07745674 </i>
  <i name="e_wo_entrp">    -66.07745674 </i>
  <i name="e_0_energy">    -66.07745674 </i>
 </energy>
 <time name="totalsc">    0.01    0.03</time>
 <structure>
  <crystal>
   <varray name="basis" >
    <v>       0.00000000       6.96436038       6.96436038 </v>
    <v>       6.96436038       0.00000000       6.96436038 </v>
    <v>       6.96436038       6.96436038       0.00000000 </v>
   </varray>
   <i name="volume">    675.57521026 </i>
   <varray name="rec_basis" >
    <v>      -0.07179410       0.07179410       0.07179410 </v>
    <v>       0.07179410      -0.07179410       0.07179410 </v>
    <v>       0.07179410       0.07179410      -0.07179410 </v>
   </varray>
  </crystal>
  <varray name="positions" >
   <v>       0.25000000       0.25000000       0.25000000 </v>
   <v>       0.75000000       0.25000000       0.25000000 </v>
   <v>       0.25000000       0.75000000       0.25000000 </v>
   <v>       0.75000000       0.75000000       0.25000000 </v>
   <v>       0.25000000       0.25000000       0.75000000 </v>
   <v>       0.75000000       0.25000000       0.75000000 </v>
   <v>       0.25000000       0.75000000       0.75000000 </v>
   <v>       0.75000000       0.75000000       0.75000000 </v>
   <v>       0.00000000       0.00000000       0.00000000 </v>
   <v>       0.50000000       0.00000000       0.00000000 </v>
   <v>       0.00000000       0.50000000       0.00000000 </v>
   <v>       0.50000000       0.50000000       0.00000000 </v>
   <v>       0.00000000       0.00000000       0.50000000 </v>
   <v>       0.50000000       0.00000000       0.50000000 </v>
   <v>       0.00000000       0.50000000       0.50000000 </v>
   <v>       0.50000000       0.50000000       0.50000000 </v>
  </varray>
 </structure>
 <varray name="forces" >
  <v>       0.00000000      -0.00000000       0.00000000 </v>
  <v>       0.00000000      -0.00000000      -0.00000000 </v>
  <v>      -0.00000000       0.00000000       0.00000000 </v>
  <v>      -0.00000000      -0.00000000      -0.00000000 </v>
  <v>       0.00000000       0.00000000       0.00000000 </v>
  <v>       0.00000000       0.00000000      -0.00000000 </v>
  <v>      -0.00000000       0.00000000       0.00000000 </v>
  <v>      -0.00000000       0.00000000       0.00000000 </v>
  <v>       0.00000000       0.00000000      -0.00000000 </v>
  <v>      -0.00000000      -0.00000000       0.00000000 </v>
  <v>      -0.00000000      -0.00000000      -0.00000000 </v>
  <v>       0.00000000      -0.00000000       0.00000000 </v>
  <v>       0.00000000       0.00000000       0.00000000 </v>
  <v>      -0.00000000      -0.00000000      -0.00000000 </v>
  <v>       0.00000000      -0.00000000       0.00000000 </v>
  <v>      -0.00000000      -0.00000000       0.00000000 </v>
 </varray>
 <varray name="stress" >
  <v>       0.00000003      -0.00000000       0.00000000 </v>
  <v>      -0.00000000       0.00000003      -0.00000000 </v>
  <v>       0.00000000      -0.00000000       0.00000003 </v>
 </varray>
 <energy>
  <i name="e_fr_energy">    -66.07745674 </i>
  <i name="e_wo_entrp">    -66.07745674 </i>
  <i name="e_0_energy">    -66.07745674 </i>
 </energy>
 <time name="totalsc">    0.01    0.03</time>
 <structure name="finalpos" >
  <crystal>
   <varray name="basis" >
    <v>       0.00000000       6.96436038       6.96436038 </v>
    <v>       6.96436038       0.00000000       6.96436038 </v>
    <v>       6.96436038       6.96436038       0.00000000 </v>
   </varray>
   <i name="volume">    675.57521026 </i>
   <varray name="rec_basis" >
    <v>      -0.07179410       0.07179410       0.07179410 </v>
    <v>       0.07179410      -0.07179410       0.07179410 </v>
    <v>       0.07179410       0.07179410      -0.07179410 </v>
   </varray>
  </crystal>
  <varray name="positions" >
   <v>       0.25000000       0.25000000       0.25000000 </v>
   <v>       0.75000000       0.25000000       0.25000000 </v>
   <v>       0.25000000       0.75000000       0.25000000 </v>
   <v>       0.75000000       0.75000000       0.25000000 </v>
   <v>       0.25000000       0.25000000       0.75000000 </v>
   <v>       0.75000000       0.25000000       0.75000000 </v>
   <v>       0.25000000       0.75000000       0.75000000 </v>
   <v>       0.75000000       0.75000000       0.75000000 </v>
   <v>       0.00000000       0.00000000       0.00000000 </v>
   <v>       0.50000000       0.00000000       0.00000000 </v>
   <v>       0.00000000       0.50000000       0.00000000 </v>
   <v>       0.50000000       0.50000000       0.00000000 </v>
   <v>       0.00000000       0.00000000       0.50000000 </v>
   <v>       0.50000000       0.00000000       0.50000000 </v>
   <v>       0.00000000       0.50000000       0.50000000 </v>
   <v>       0.50000000       0.50000000       0.50000000 </v>
  </varray>
 </structure>
</modeling>
