<?xml version="1.0" encoding="ISO-8859-1"?>
<modeling>
 <generator>
  <i name="program" type="string">vasp </i>
  <i name="version" type="string">6.3.0  </i>
  <i name="subversion" type="string">20Jan22 (build Feb 21 2022 11:18:28) complex                          parallel </i>
  <i name="platform" type="string">CrayXC_GCC_OMP </i>
  <i name="date" type="string">2023 10 04 </i>
  <i name="time" type="string">23:05:30 </i>
 </generator>
 <incar>
  <i type="int" name="ISTART">     1</i>
  <i type="string" name="PREC">Accurate  (Precision level)</i>
  <i type="string" name="ALGO">FAST      (SCF minimisation algorithm</i>
  <i type="logical" name="ADDGRID"> T  </i>
  <i type="int" name="ISPIN">     1</i>
  <i type="int" name="INIWAV">     1</i>
  <i type="int" name="NELM">   500</i>
  <i type="int" name="NELMIN">     5</i>
  <i type="int" name="IBRION">     2</i>
  <i name="EDIFF">      0.00000001</i>
  <i name="EDIFFG">     -0.00000010</i>
  <i type="int" name="NSW">   200</i>
  <i type="int" name="ISIF">     2</i>
  <i type="int" name="ISYM">     2</i>
  <i type="int" name="NBLOCK">     1</i>
  <i name="ENMAX">    600.00000000</i>
  <i type="int" name="NEDOS">  1000</i>
  <i type="logical" name="LREAL"> F  </i>
  <i type="logical" name="LPLANE"> T  </i>
  <i type="int" name="ISMEAR">     0</i>
  <i name="SIGMA">      0.01000000</i>
  <i type="int" name="NWRITE">     2</i>
  <i type="int" name="LMAXMIX">     4</i>
  <i type="int" name="LORBIT">    11</i>
  <i type="int" name="ICORELEVEL">     1</i>
  <i type="string" name="GGA">PS     (PBEsol exchange-correlation)</i>
 </incar>
 <primitive_cell>
  <structure name="primitive_cell" >
   <crystal>
    <varray name="basis" >
     <v>       0.00000818       2.71790378       2.71791125 </v>
     <v>       2.71791535       0.00000709       2.71790826 </v>
     <v>       2.71790784       2.71790560       0.00000224 </v>
    </varray>
    <i name="volume">     40.15440347 </i>
    <varray name="rec_basis" >
     <v>      -0.18396533       0.18396533       0.18396533 </v>
     <v>       0.18396538      -0.18396568       0.18396462 </v>
     <v>       0.18396473       0.18396564      -0.18396569 </v>
    </varray>
   </crystal>
   <varray name="positions" >
    <v>       0.25006801       0.25025561       0.25088122 </v>
    <v>       0.00006891       0.00025593       0.00088185 </v>
   </varray>
  </structure>
  <varray name="primitive_index" >
   <v type="int" >        1 </v>
   <v type="int" >        9 </v>
  </varray>
 </primitive_cell>
 <kpoints>
  <generation param="Gamma">
   <v type="int" name="divisions">       6        6        6 </v>
   <v name="usershift">      0.00000000       0.00000000       0.00000000 </v>
   <v name="genvec1">      0.16666667       0.00000000      -0.00000000 </v>
   <v name="genvec2">      0.00000000       0.16666667       0.00000000 </v>
   <v name="genvec3">     -0.00000000      -0.00000000       0.16666667 </v>
   <v name="shift">      0.00000000       0.00000000       0.00000000 </v>
  </generation>
  <varray name="kpointlist" >
   <v>       0.00000000       0.00000000       0.00000000 </v>
   <v>       0.16666667       0.00000000       0.00000000 </v>
   <v>       0.33333333       0.00000000       0.00000000 </v>
   <v>       0.50000000       0.00000000       0.00000000 </v>
   <v>       0.16666667       0.16666667       0.00000000 </v>
   <v>       0.33333333       0.16666667       0.00000000 </v>
   <v>       0.50000000       0.16666667       0.00000000 </v>
   <v>      -0.33333333       0.16666667       0.00000000 </v>
   <v>      -0.16666667       0.16666667       0.00000000 </v>
   <v>       0.33333333       0.33333333       0.00000000 </v>
   <v>       0.50000000       0.33333333       0.00000000 </v>
   <v>      -0.33333333       0.33333333       0.00000000 </v>
   <v>       0.50000000       0.50000000       0.00000000 </v>
   <v>       0.50000000       0.33333333       0.16666667 </v>
   <v>      -0.33333333       0.33333333       0.16666667 </v>
   <v>      -0.33333333       0.50000000       0.16666667 </v>
  </varray>
  <varray name="weights" >
   <v>       0.00462963 </v>
   <v>       0.03703704 </v>
   <v>       0.03703704 </v>
   <v>       0.01851852 </v>
   <v>       0.02777778 </v>
   <v>       0.11111111 </v>
   <v>       0.11111111 </v>
   <v>       0.11111111 </v>
   <v>       0.05555556 </v>
   <v>       0.02777778 </v>
   <v>       0.11111111 </v>
   <v>       0.05555556 </v>
   <v>       0.01388889 </v>
   <v>       0.11111111 </v>
   <v>       0.11111111 </v>
   <v>       0.05555556 </v>
  </varray>
 </kpoints>
 <parameters>
  <separator name="general" >
   <i type="string" name="SYSTEM">unknown system</i>
   <i type="logical" name="LCOMPAT"> F  </i>
  </separator>
  <separator name="electronic" >
   <i type="string" name="PREC">accura</i>
   <i name="ENMAX">    600.00000000</i>
   <i name="ENAUG">    322.06900000</i>
   <i name="EDIFF">      0.00000001</i>
   <i type="int" name="IALGO">    68</i>
   <i type="int" name="IWAVPR">    11</i>
   <i type="int" name="NBANDS">    48</i>
   <i type="int" name="NBANDSLOW">    -1</i>
   <i type="int" name="NBANDSHIGH">    -1</i>
   <i name="NELECT">     64.00000000</i>
   <i type="int" name="TURBO">     0</i>
   <i type="int" name="IRESTART">     0</i>
   <i type="int" name="NREBOOT">     0</i>
   <i type="int" name="NMIN">     0</i>
   <i name="EREF">      0.00000000</i>
   <separator name="electronic smearing" >
    <i type="int" name="ISMEAR">     0</i>
    <i name="SIGMA">      0.01000000</i>
    <i name="KSPACING">      0.50000000</i>
    <i type="logical" name="KGAMMA"> T  </i>
    <i type="logical" name="KBLOWUP"> T  </i>
   </separator>
   <separator name="electronic projectors" >
    <i type="logical" name="LREAL"> F  </i>
    <v name="ROPT">      0.00000000</v>
    <i type="int" name="LMAXPAW">  -100</i>
    <i type="int" name="LMAXMIX">     4</i>
    <i type="logical" name="NLSPLINE"> F  </i>
   </separator>
   <separator name="electronic startup" >
    <i type="int" name="ISTART">     0</i>
    <i type="int" name="ICHARG">     2</i>
    <i type="int" name="INIWAV">     1</i>
   </separator>
   <separator name="electronic spin" >
    <i type="int" name="ISPIN">     1</i>
    <i type="logical" name="LNONCOLLINEAR"> F  </i>
    <v name="MAGMOM">      1.00000000      1.00000000      1.00000000      1.00000000      1.00000000      1.00000000      1.00000000      1.00000000      1.00000000      1.00000000      1.00000000      1.00000000      1.00000000      1.00000000      1.00000000      1.00000000</v>
    <i name="NUPDOWN">     -1.00000000</i>
    <i type="logical" name="LSORBIT"> F  </i>
    <v name="SAXIS">      0.00000000      0.00000000      1.00000000</v>
    <i type="logical" name="LSPIRAL"> F  </i>
    <v name="QSPIRAL">      0.00000000      0.00000000      0.00000000</v>
    <i type="logical" name="LZEROZ"> F  </i>
   </separator>
   <separator name="electronic exchange-correlation" >
    <i type="logical" name="LASPH"> F  </i>
    <i type="logical" name="LMETAGGA"> F  </i>
   </separator>
   <separator name="electronic convergence" >
    <i type="int" name="NELM">   500</i>
    <i type="int" name="NELMDL">     0</i>
    <i type="int" name="NELMIN">     5</i>
    <i name="ENINI">    600.00000000</i>
    <separator name="electronic convergence detail" >
     <i type="logical" name="LDIAG"> T  </i>
     <i type="logical" name="LSUBROT"> F  </i>
     <i name="WEIMIN">      0.00100000</i>
     <i name="EBREAK">      0.00000000</i>
     <i name="DEPER">      0.30000000</i>
     <i type="int" name="NRMM">     4</i>
     <i name="TIME">      0.40000000</i>
    </separator>
   </separator>
   <separator name="electronic mixer" >
    <i name="AMIX">      0.40000000</i>
    <i name="BMIX">      1.00000000</i>
    <i name="AMIN">      0.10000000</i>
    <i name="AMIX_MAG">      1.60000000</i>
    <i name="BMIX_MAG">      1.00000000</i>
    <separator name="electronic mixer details" >
     <i type="int" name="IMIX">     4</i>
     <i type="logical" name="MIXFIRST"> F  </i>
     <i type="int" name="MAXMIX">   -45</i>
     <i name="WC">    100.00000000</i>
     <i type="int" name="INIMIX">     1</i>
     <i type="int" name="MIXPRE">     1</i>
     <i type="int" name="MREMOVE">     5</i>
    </separator>
   </separator>
   <separator name="electronic dipolcorrection" >
    <i type="logical" name="LDIPOL"> F  </i>
    <i type="logical" name="LMONO"> F  </i>
    <i type="int" name="IDIPOL">     0</i>
    <i name="EPSILON">      1.00000000</i>
    <v name="DIPOL">   -100.00000000   -100.00000000   -100.00000000</v>
    <i name="EFIELD">      0.00000000</i>
   </separator>
  </separator>
  <separator name="grids" >
   <i type="int" name="NGX">    64</i>
   <i type="int" name="NGY">    64</i>
   <i type="int" name="NGZ">    64</i>
   <i type="int" name="NGXF">   128</i>
   <i type="int" name="NGYF">   128</i>
   <i type="int" name="NGZF">   128</i>
   <i type="logical" name="ADDGRID"> T  </i>
  </separator>
  <separator name="ionic" >
   <i type="int" name="NSW">   200</i>
   <i type="int" name="IBRION">     2</i>
   <i type="int" name="MDALGO">     0</i>
   <i type="int" name="ISIF">     2</i>
   <i name="PSTRESS">      0.00000000</i>
   <i name="EDIFFG">     -0.00000010</i>
   <i type="int" name="NFREE">     1</i>
   <i name="POTIM">      0.50000000</i>
   <i name="SMASS">     -3.00000000</i>
   <i name="SCALEE">      1.00000000</i>
  </separator>
  <separator name="ionic md" >
   <i name="TEBEG">      0.00010000</i>
   <i name="TEEND">      0.00010000</i>
   <i type="int" name="NBLOCK">     1</i>
   <i type="int" name="KBLOCK">   200</i>
   <i type="int" name="NPACO">   256</i>
   <i name="APACO">     10.00000000</i>
  </separator>
  <separator name="symmetry" >
   <i type="int" name="ISYM">     2</i>
   <i name="SYMPREC">      0.00001000</i>
  </separator>
  <separator name="dos" >
   <i type="int" name="LORBIT">    11</i>
   <v name="RWIGS">     -1.00000000</v>
   <i type="int" name="NEDOS">  1000</i>
   <i name="EMIN">     10.00000000</i>
   <i name="EMAX">    -10.00000000</i>
   <i name="EFERMI">      0.00000000</i>
  </separator>
  <separator name="writing" >
   <i type="int" name="NWRITE">     2</i>
   <i type="logical" name="LWAVE"> T  </i>
   <i type="logical" name="LDOWNSAMPLE"> F  </i>
   <i type="logical" name="LCHARG"> T  </i>
   <i type="logical" name="LPARD"> F  </i>
   <i type="logical" name="LVTOT"> F  </i>
   <i type="logical" name="LVHAR"> F  </i>
   <i type="logical" name="LELF"> F  </i>
   <i type="logical" name="LOPTICS"> F  </i>
   <v name="STM">      0.00000000      0.00000000      0.00000000      0.00000000      0.00000000      0.00000000      0.00000000</v>
  </separator>
  <separator name="performance" >
   <i type="int" name="NPAR">     8</i>
   <i type="int" name="NSIM">     4</i>
   <i type="int" name="NBLK">    -1</i>
   <i type="logical" name="LPLANE"> T  </i>
   <i type="logical" name="LSCALAPACK"> T  </i>
   <i type="logical" name="LSCAAWARE"> F  </i>
   <i type="logical" name="LSCALU"> F  </i>
   <i type="logical" name="LASYNC"> F  </i>
   <i type="logical" name="LORBITALREAL"> F  </i>
  </separator>
  <separator name="miscellaneous" >
   <i type="int" name="IDIOT">     3</i>
   <i type="int" name="PHON_NSTRUCT">    -1</i>
   <i type="logical" name="LMUSIC"> F  </i>
   <v name="POMASS">     28.08500000</v>
   <v name="DARWINR">      0.00000000</v>
   <v name="DARWINV">      1.00000000</v>
   <i type="logical" name="LCORR"> T  </i>
  </separator>
  <i type="logical" name="GGA_COMPAT"> T  </i>
  <i type="logical" name="LBERRY"> F  </i>
  <i type="int" name="ICORELEVEL">     1</i>
  <i type="int" name="CLNT">     1</i>
  <i type="int" name="CLN">     1</i>
  <i type="int" name="CLL">     0</i>
  <i name="CLZ">      0.00000000</i>
  <i type="logical" name="LDAU"> F  </i>
  <i type="int" name="I_CONSTRAINED_M">     0</i>
  <separator name="electronic exchange-correlation" >
   <i type="string" name="GGA">PS</i>
   <i type="int" name="VOSKOWN">     0</i>
   <i type="logical" name="LHFCALC"> F  </i>
   <i type="string" name="PRECFOCK"></i>
   <i type="logical" name="LSYMGRAD"> F  </i>
   <i type="logical" name="LHFONE"> F  </i>
   <i type="logical" name="LRHFCALC"> F  </i>
   <i type="logical" name="LTHOMAS"> F  </i>
   <i type="logical" name="LMODELHF"> F  </i>
   <i type="logical" name="LFOCKACE"> F  </i>
   <i name="ENCUT4O">     -1.00000000</i>
   <i type="int" name="EXXOEP">     0</i>
   <i type="int" name="FOURORBIT">     0</i>
   <i name="AEXX">      0.00000000</i>
   <i name="HFALPHA">      0.00000000</i>
   <i name="MCALPHA">      0.00000000</i>
   <i name="ALDAX">      1.00000000</i>
   <i name="AGGAX">      1.00000000</i>
   <i name="ALDAC">      1.00000000</i>
   <i name="AGGAC">      1.00000000</i>
   <i type="int" name="NKREDX">     1</i>
   <i type="int" name="NKREDY">     1</i>
   <i type="int" name="NKREDZ">     1</i>
   <i type="logical" name="SHIFTRED"> F  </i>
   <i type="logical" name="ODDONLY"> F  </i>
   <i type="logical" name="EVENONLY"> F  </i>
   <i type="int" name="LMAXFOCK">     0</i>
   <i type="int" name="NMAXFOCKAE">     0</i>
   <i type="logical" name="LFOCKAEDFT"> F  </i>
   <i name="HFSCREEN">      0.00000000</i>
   <i name="HFSCREENC">      0.00000000</i>
   <i type="int" name="NBANDSGWLOW">     0</i>
  </separator>
  <separator name="vdW DFT" >
   <i type="logical" name="LUSE_VDW"> F  </i>
   <i name="Zab_VDW">     -0.84910000</i>
   <i name="PARAM1">      0.12340000</i>
   <i name="PARAM2">      1.00000000</i>
   <i name="PARAM3">      0.00000000</i>
  </separator>
  <separator name="model GW" >
   <i type="int" name="MODEL_GW">     0</i>
   <i name="MODEL_EPS0">     12.04632288</i>
   <i name="MODEL_ALPHA">      1.00000000</i>
  </separator>
  <separator name="linear response parameters" >
   <i type="logical" name="LEPSILON"> F  </i>
   <i type="logical" name="LRPA"> F  </i>
   <i type="logical" name="LNABLA"> F  </i>
   <i type="logical" name="LVEL"> F  </i>
   <i name="CSHIFT">      0.10000000</i>
   <i name="OMEGAMAX">     -1.00000000</i>
   <i name="DEG_THRESHOLD">      0.00200000</i>
   <i name="RTIME">     -0.10000000</i>
   <i name="WPLASMAI">      0.00000000</i>
   <v name="DFIELD">      0.00000000      0.00000000      0.00000000</v>
   <v name="WPLASMA">      0.00000000      0.00000000      0.00000000      0.00000000      0.00000000      0.00000000      0.00000000      0.00000000      0.00000000</v>
  </separator>
  <separator name="orbital magnetization" >
   <i type="logical" name="NUCIND"> F  </i>
   <v name="MAGPOS">      0.00000000      0.00000000      0.00000000</v>
   <i type="logical" name="LNICSALL"> T  </i>
   <i type="logical" name="ORBITALMAG"> F  </i>
   <i type="logical" name="LMAGBLOCH"> F  </i>
   <i type="logical" name="LCHIMAG"> F  </i>
   <i type="logical" name="LGAUGE"> T  </i>
   <i type="int" name="MAGATOM">     0</i>
   <v name="MAGDIPOL">      0.00000000      0.00000000      0.00000000</v>
   <v name="AVECCONST">      0.00000000      0.00000000      0.00000000</v>
  </separator>
  <separator name="response functions" >
   <i type="logical" name="LFINITE_TEMPERATURE"> F  </i>
   <i type="logical" name="LADDER"> F  </i>
   <i type="logical" name="LRPAFORCE"> F  </i>
   <i type="logical" name="LFXC"> F  </i>
   <i type="logical" name="LHARTREE"> T  </i>
   <i type="int" name="IBSE">     0</i>
   <v type="int" name="KPOINT">    -1     0     0     0</v>
   <i type="logical" name="LTCTC"> F  </i>
   <i type="logical" name="LTCTE"> F  </i>
   <i type="logical" name="LTETE"> F  </i>
   <i type="logical" name="LTRIPLET"> F  </i>
   <i type="logical" name="LFXCEPS"> F  </i>
   <i type="logical" name="LFXHEG"> F  </i>
   <i type="int" name="NATURALO">     2</i>
   <i type="logical" name="LHOLEGF"> F  </i>
   <i type="logical" name="L2ORDER"> F  </i>
   <i type="logical" name="LDMP1"> F  </i>
   <i type="logical" name="LMP2LT"> F  </i>
   <i type="logical" name="LSMP2LT"> F  </i>
   <i type="logical" name="LGWLF"> F  </i>
   <i name="ENCUTGW">     -2.00000000</i>
   <i name="ENCUTGWSOFT">     -2.00000000</i>
   <i name="ENCUTLF">     -1.00000000</i>
   <i type="logical" name="LESF_SPLINES"> F  </i>
   <i type="int" name="LMAXMP2">    -1</i>
   <i name="SCISSOR">      0.00000000</i>
   <i type="int" name="NOMEGA">     0</i>
   <i type="int" name="NOMEGAR">     0</i>
   <i type="int" name="NBANDSGW">    -1</i>
   <i type="int" name="NBANDSO">    -1</i>
   <i type="int" name="NBANDSV">    -1</i>
   <i type="int" name="NELMGW">     1</i>
   <i type="int" name="NELMHF">     1</i>
   <i type="int" name="DIM">     3</i>
   <i type="int" name="IESPILON">     4</i>
   <i type="int" name="ANTIRES">     0</i>
   <i name="OMEGAMAX">    -30.00000000</i>
   <i name="OMEGAMIN">    -30.00000000</i>
   <i name="OMEGATL">   -200.00000000</i>
   <i type="int" name="OMEGAGRID">     0</i>
   <i name="CSHIFT">     -0.10000000</i>
   <i type="logical" name="LSELFENERGY"> F  </i>
   <i type="logical" name="LSPECTRAL"> F  </i>
   <i type="logical" name="LSPECTRALGW"> F  </i>
   <i type="logical" name="LSINGLES"> F  </i>
   <i type="logical" name="LFERMIGW"> F  </i>
   <i type="logical" name="ODDONLYGW"> F  </i>
   <i type="logical" name="EVENONLYGW"> F  </i>
   <i type="int" name="NKREDLFX">     1</i>
   <i type="int" name="NKREDLFY">     1</i>
   <i type="int" name="NKREDLFZ">     1</i>
   <i type="int" name="MAXMEM">  2800</i>
   <i type="int" name="TELESCOPE">     0</i>
   <i type="int" name="NTAUPAR">    -1</i>
   <i type="int" name="NOMEGAPAR">    -1</i>
   <i name="DAMP_NEWTON">      0.80000001</i>
   <i name="LAMBDA">      1.00000000</i>
  </separator>
  <separator name="External order field" >
   <i name="OFIELD_KAPPA">      0.00000000</i>
   <v name="OFIELD_K">      0.00000000      0.00000000      0.00000000</v>
   <i name="OFIELD_Q6_NEAR">      0.00000000</i>
   <i name="OFIELD_Q6_FAR">      0.00000000</i>
   <i name="OFIELD_A">      0.00000000</i>
  </separator>
  <separator name="optional k-points parameters" >
   <i type="int" name="KPOINTS_OPT_MODE">     1</i>
   <i type="logical" name="LKPOINTS_OPT"> F  </i>
  </separator>
 </parameters>
 <atominfo>
  <atoms>      16 </atoms>
  <types>       1 </types>
  <array name="atoms" >
   <dimension dim="1">ion</dimension>
   <field type="string">element</field>
   <field type="int">atomtype</field>
   <set>
    <rc><c>Si</c><c>   1</c></rc>
    <rc><c>Si</c><c>   1</c></rc>
    <rc><c>Si</c><c>   1</c></rc>
    <rc><c>Si</c><c>   1</c></rc>
    <rc><c>Si</c><c>   1</c></rc>
    <rc><c>Si</c><c>   1</c></rc>
    <rc><c>Si</c><c>   1</c></rc>
    <rc><c>Si</c><c>   1</c></rc>
    <rc><c>Si</c><c>   1</c></rc>
    <rc><c>Si</c><c>   1</c></rc>
    <rc><c>Si</c><c>   1</c></rc>
    <rc><c>Si</c><c>   1</c></rc>
    <rc><c>Si</c><c>   1</c></rc>
    <rc><c>Si</c><c>   1</c></rc>
    <rc><c>Si</c><c>   1</c></rc>
    <rc><c>Si</c><c>   1</c></rc>
   </set>
  </array>
  <array name="atomtypes" >
   <dimension dim="1">type</dimension>
   <field type="int">atomspertype</field>
   <field type="string">element</field>
   <field>mass</field>
   <field>valence</field>
   <field type="string">pseudopotential</field>
   <set>
    <rc><c>  16</c><c>Si</c><c>     28.08500000</c><c>      4.00000000</c><c>  PAW_PBE Si 05Jan2001                  </c></rc>
   </set>
  </array>
 </atominfo>
 <structure name="initialpos" >
  <crystal>
   <varray name="basis" >
    <v>       0.00000000       5.43581180       5.43581180 </v>
    <v>       5.43581180       0.00000000       5.43581180 </v>
    <v>       5.43581180       5.43581180       0.00000000 </v>
   </varray>
   <i name="volume">    321.23527682 </i>
   <varray name="rec_basis" >
    <v>      -0.09198258       0.09198258       0.09198258 </v>
    <v>       0.09198258      -0.09198258       0.09198258 </v>
    <v>       0.09198258       0.09198258      -0.09198258 </v>
   </varray>
  </crystal>
  <varray name="positions" >
   <v>       0.12503389       0.12512838       0.12544094 </v>
   <v>       0.62503444       0.12512956       0.12544034 </v>
   <v>       0.12503441       0.62512796       0.12544208 </v>
   <v>       0.62503379       0.62512939       0.12544259 </v>
   <v>       0.12503397       0.12512759       0.62544099 </v>
   <v>       0.62503330       0.12512970       0.62544108 </v>
   <v>       0.12503332       0.62512829       0.62544235 </v>
   <v>       0.62503426       0.62512958       0.62544182 </v>
   <v>       0.00003446       0.00012796       0.00044093 </v>
   <v>       0.50003400       0.00012940       0.00044099 </v>
   <v>       0.00003394       0.50012840       0.00044223 </v>
   <v>       0.50003457       0.50012960       0.00044176 </v>
   <v>       0.00003345       0.00012838       0.50044087 </v>
   <v>       0.50003417       0.00012974       0.50044034 </v>
   <v>       0.00003439       0.50012765       0.50044206 </v>
   <v>       0.50003342       0.50012976       0.50044252 </v>
  </varray>
 </structure>
 <calculation>
  <scstep>
   <time name="dav">    0.60    0.61</time>
   <time name="total">    0.70    0.71</time>
   <energy>
    <i name="alphaZ">     26.82694619 </i>
    <i name="ewald">  -1826.55336167 </i>
    <i name="hartreedc">    -88.39437998 </i>
    <i name="XCdc">   -139.73341145 </i>
    <i name="pawpsdc">   1399.65656354 </i>
    <i name="pawaedc">  -1123.04461034 </i>
    <i name="eentropy">     -0.00054920 </i>
    <i name="bandstr">    264.62380130 </i>
    <i name="atom">   1641.21197842 </i>
    <i name="e_fr_energy">    154.59297680 </i>
    <i name="e_wo_entrp">    154.59352600 </i>
    <i name="e_0_energy">    154.59325140 </i>
   </energy>
  </scstep>
  <scstep>
   <time name="dav">    0.62    0.64</time>
   <time name="total">    0.62    0.64</time>
   <energy>
    <i name="e_fr_energy">    -79.39796060 </i>
    <i name="e_wo_entrp">    -79.39796060 </i>
    <i name="e_0_energy">    -79.39796060 </i>
   </energy>
  </scstep>
  <scstep>
   <time name="dav">    0.65    0.66</time>
   <time name="total">    0.65    0.66</time>
   <energy>
    <i name="e_fr_energy">    -93.40682710 </i>
    <i name="e_wo_entrp">    -93.40682710 </i>
    <i name="e_0_energy">    -93.40682710 </i>
   </energy>
  </scstep>
  <scstep>
   <time name="dav">    0.63    0.65</time>
   <time name="total">    0.64    0.65</time>
   <energy>
    <i name="e_fr_energy">    -93.70994597 </i>
    <i name="e_wo_entrp">    -93.70994597 </i>
    <i name="e_0_energy">    -93.70994597 </i>
   </energy>
  </scstep>
  <scstep>
   <time name="dav">    0.63    0.65</time>
   <time name="total">    0.91    0.92</time>
   <energy>
    <i name="e_fr_energy">    -93.71746979 </i>
    <i name="e_wo_entrp">    -93.71746979 </i>
    <i name="e_0_energy">    -93.71746979 </i>
   </energy>
  </scstep>
  <scstep>
   <time name="diag">    0.19    0.19</time>
   <time name="diis">    0.29    0.29</time>
   <time name="orth">    0.01    0.01</time>
   <time name="total">    0.84    0.85</time>
   <energy>
    <i name="e_fr_energy">    -92.49290158 </i>
    <i name="e_wo_entrp">    -92.49290158 </i>
    <i name="e_0_energy">    -92.49290158 </i>
   </energy>
  </scstep>
  <scstep>
   <time name="diag">    0.18    0.18</time>
   <time name="diis">    0.29    0.29</time>
   <time name="orth">    0.01    0.01</time>
   <time name="total">    0.84    0.84</time>
   <energy>
    <i name="e_fr_energy">    -91.93162967 </i>
    <i name="e_wo_entrp">    -91.93162967 </i>
    <i name="e_0_energy">    -91.93162967 </i>
   </energy>
  </scstep>
  <scstep>
   <time name="diag">    0.18    0.18</time>
   <time name="diis">    0.29    0.29</time>
   <time name="orth">    0.01    0.01</time>
   <time name="total">    0.83    0.84</time>
   <energy>
    <i name="e_fr_energy">    -91.94175373 </i>
    <i name="e_wo_entrp">    -91.94175373 </i>
    <i name="e_0_energy">    -91.94175373 </i>
   </energy>
  </scstep>
  <scstep>
   <time name="diag">    0.18    0.18</time>
   <time name="diis">    0.29    0.29</time>
   <time name="orth">    0.01    0.01</time>
   <time name="total">    0.84    0.84</time>
   <energy>
    <i name="e_fr_energy">    -91.94515048 </i>
    <i name="e_wo_entrp">    -91.94515048 </i>
    <i name="e_0_energy">    -91.94515048 </i>
   </energy>
  </scstep>
  <scstep>
   <time name="diag">    0.19    0.19</time>
   <time name="diis">    0.31    0.31</time>
   <time name="orth">    0.01    0.01</time>
   <time name="total">    0.86    0.88</time>
   <energy>
    <i name="e_fr_energy">    -91.94569180 </i>
    <i name="e_wo_entrp">    -91.94569180 </i>
    <i name="e_0_energy">    -91.94569180 </i>
   </energy>
  </scstep>
  <scstep>
   <time name="diag">    0.18    0.18</time>
   <time name="diis">    0.28    0.28</time>
   <time name="orth">    0.01    0.01</time>
   <time name="total">    0.83    0.83</time>
   <energy>
    <i name="e_fr_energy">    -91.94482292 </i>
    <i name="e_wo_entrp">    -91.94482292 </i>
    <i name="e_0_energy">    -91.94482292 </i>
   </energy>
  </scstep>
  <scstep>
   <time name="diag">    0.18    0.18</time>
   <time name="diis">    0.28    0.28</time>
   <time name="orth">    0.01    0.01</time>
   <time name="total">    0.82    0.83</time>
   <energy>
    <i name="e_fr_energy">    -91.94576499 </i>
    <i name="e_wo_entrp">    -91.94576499 </i>
    <i name="e_0_energy">    -91.94576499 </i>
   </energy>
  </scstep>
  <scstep>
   <time name="diag">    0.18    0.18</time>
   <time name="diis">    0.28    0.28</time>
   <time name="orth">    0.01    0.01</time>
   <time name="total">    0.83    0.83</time>
   <energy>
    <i name="e_fr_energy">    -91.94584804 </i>
    <i name="e_wo_entrp">    -91.94584804 </i>
    <i name="e_0_energy">    -91.94584804 </i>
   </energy>
  </scstep>
  <scstep>
   <time name="diag">    0.18    0.18</time>
   <time name="diis">    0.30    0.30</time>
   <time name="orth">    0.01    0.01</time>
   <time name="total">    0.84    0.85</time>
   <energy>
    <i name="e_fr_energy">    -91.94585548 </i>
    <i name="e_wo_entrp">    -91.94585548 </i>
    <i name="e_0_energy">    -91.94585548 </i>
   </energy>
  </scstep>
  <scstep>
   <time name="diag">    0.18    0.18</time>
   <time name="diis">    0.30    0.30</time>
   <time name="orth">    0.01    0.01</time>
   <time name="total">    0.84    0.84</time>
   <energy>
    <i name="e_fr_energy">    -91.94585565 </i>
    <i name="e_wo_entrp">    -91.94585565 </i>
    <i name="e_0_energy">    -91.94585565 </i>
   </energy>
  </scstep>
  <scstep>
   <time name="diag">    0.18    0.18</time>
   <time name="diis">    0.31    0.31</time>
   <time name="orth">    0.01    0.01</time>
   <time name="total">    0.84    0.86</time>
   <energy>
    <i name="e_fr_energy">    -91.94585664 </i>
    <i name="e_wo_entrp">    -91.94585664 </i>
    <i name="e_0_energy">    -91.94585664 </i>
   </energy>
  </scstep>
  <scstep>
   <time name="diag">    0.18    0.18</time>
   <time name="diis">    0.28    0.28</time>
   <time name="orth">    0.01    0.01</time>
   <time name="total">    0.83    0.83</time>
   <energy>
    <i name="e_fr_energy">    -91.94585644 </i>
    <i name="e_wo_entrp">    -91.94585644 </i>
    <i name="e_0_energy">    -91.94585644 </i>
   </energy>
  </scstep>
  <scstep>
   <time name="diag">    0.18    0.18</time>
   <time name="diis">    0.28    0.29</time>
   <time name="orth">    0.01    0.01</time>
   <time name="total">    0.82    0.83</time>
   <energy>
    <i name="e_fr_energy">    -91.94585646 </i>
    <i name="e_wo_entrp">    -91.94585646 </i>
    <i name="e_0_energy">    -91.94585646 </i>
   </energy>
  </scstep>
  <scstep>
   <time name="diag">    0.18    0.18</time>
   <time name="diis">    0.22    0.22</time>
   <time name="orth">    0.01    0.01</time>
   <time name="total">    0.76    0.76</time>
   <energy>
    <i name="e_fr_energy">    -91.94585645 </i>
    <i name="e_wo_entrp">    -91.94585645 </i>
    <i name="e_0_energy">    -91.94585645 </i>
   </energy>
  </scstep>
  <scstep>
   <time name="diag">    0.18    0.18</time>
   <time name="diis">    0.20    0.20</time>
   <time name="orth">    0.01    0.01</time>
   <time name="total">    0.73    0.75</time>
   <energy>
    <i name="e_fr_energy">    -91.94585646 </i>
    <i name="e_wo_entrp">    -91.94585646 </i>
    <i name="e_0_energy">    -91.94585646 </i>
   </energy>
  </scstep>
  <scstep>
   <time name="diag">    0.18    0.18</time>
   <time name="diis">    0.20    0.20</time>
   <time name="orth">    0.01    0.01</time>
   <time name="total">    0.75    0.75</time>
   <energy>
    <i name="e_fr_energy">    -91.94585649 </i>
    <i name="e_wo_entrp">    -91.94585649 </i>
    <i name="e_0_energy">    -91.94585649 </i>
   </energy>
  </scstep>
  <scstep>
   <time name="diag">    0.18    0.18</time>
   <time name="diis">    0.18    0.18</time>
   <time name="orth">    0.01    0.01</time>
   <time name="total">    0.48    0.49</time>
   <energy>
    <i name="alphaZ">     26.82694619 </i>
    <i name="ewald">  -1826.55336167 </i>
    <i name="hartreedc">   -117.12730887 </i>
    <i name="XCdc">   -134.89721470 </i>
    <i name="pawpsdc">   6908.02071315 </i>
    <i name="pawaedc">  -6633.10757135 </i>
    <i name="eentropy">     -0.00000000 </i>
    <i name="bandstr">     43.67996234 </i>
    <i name="atom">   1641.21197842 </i>
    <i name="e_fr_energy">    -91.94585649 </i>
    <i name="e_wo_entrp">    -91.94585649 </i>
    <i name="e_0_energy">    -91.94585649 </i>
   </energy>
  </scstep>
  <structure>
   <crystal>
    <varray name="basis" >
     <v>       0.00000000       5.43581180       5.43581180 </v>
     <v>       5.43581180       0.00000000       5.43581180 </v>
     <v>       5.43581180       5.43581180       0.00000000 </v>
    </varray>
    <i name="volume">    321.23527682 </i>
    <varray name="rec_basis" >
     <v>      -0.09198258       0.09198258       0.09198258 </v>
     <v>       0.09198258      -0.09198258       0.09198258 </v>
     <v>       0.09198258       0.09198258      -0.09198258 </v>
    </varray>
   </crystal>
   <varray name="positions" >
    <v>       0.12503389       0.12512838       0.12544094 </v>
    <v>       0.62503444       0.12512956       0.12544034 </v>
    <v>       0.12503441       0.62512796       0.12544208 </v>
    <v>       0.62503379       0.62512939       0.12544259 </v>
    <v>       0.12503397       0.12512759       0.62544099 </v>
    <v>       0.62503330       0.12512970       0.62544108 </v>
    <v>       0.12503332       0.62512829       0.62544235 </v>
    <v>       0.62503426       0.62512958       0.62544182 </v>
    <v>       0.00003446       0.00012796       0.00044093 </v>
    <v>       0.50003400       0.00012940       0.00044099 </v>
    <v>       0.00003394       0.50012840       0.00044223 </v>
    <v>       0.50003457       0.50012960       0.00044176 </v>
    <v>       0.00003345       0.00012838       0.50044087 </v>
    <v>       0.50003417       0.00012974       0.50044034 </v>
    <v>       0.00003439       0.50012765       0.50044206 </v>
    <v>       0.50003342       0.50012976       0.50044252 </v>
   </varray>
  </structure>
  <varray name="forces" >
   <v>       0.00000000       0.00000000       0.00000000 </v>
   <v>       0.00000000       0.00000000       0.00000000 </v>
   <v>       0.00000000       0.00000000       0.00000000 </v>
   <v>       0.00000000       0.00000000       0.00000000 </v>
   <v>       0.00000000       0.00000000       0.00000000 </v>
   <v>       0.00000000      -0.00000000       0.00000000 </v>
   <v>       0.00000000       0.00000000       0.00000000 </v>
   <v>       0.00000000       0.00000000       0.00000000 </v>
   <v>      -0.00000000      -0.00000000      -0.00000000 </v>
   <v>      -0.00000000       0.00000000      -0.00000000 </v>
   <v>      -0.00000000      -0.00000000      -0.00000000 </v>
   <v>      -0.00000000      -0.00000000      -0.00000000 </v>
   <v>      -0.00000000      -0.00000000      -0.00000000 </v>
   <v>      -0.00000000      -0.00000000      -0.00000000 </v>
   <v>      -0.00000000      -0.00000000      -0.00000000 </v>
   <v>      -0.00000000      -0.00000000      -0.00000000 </v>
  </varray>
  <varray name="stress" >
   <v>      -0.02162809       0.00000000       0.00000000 </v>
   <v>       0.00000000      -0.02162809       0.00000000 </v>
   <v>       0.00000000       0.00000000      -0.02162809 </v>
  </varray>
  <energy>
   <i name="e_fr_energy">    -91.94585649 </i>
   <i name="e_wo_entrp">    -91.94585649 </i>
   <i name="e_0_energy">    -91.94585649 </i>
  </energy>
  <time name="totalsc">   23.36   23.59</time>
  <eigenvalues>
   <array>
    <dimension dim="1">band</dimension>
    <dimension dim="2">kpoint</dimension>
    <dimension dim="3">spin</dimension>
    <field>eigene</field>
    <field>occ</field>
    <set>
     <set comment="spin 1">
      <set comment="kpoint 1">
       <r>   -6.2095    1.0000 </r>
       <r>   -3.8669    1.0000 </r>
       <r>   -3.8669    1.0000 </r>
       <r>   -3.8669    1.0000 </r>
       <r>   -3.8669    1.0000 </r>
       <r>   -2.0590    1.0000 </r>
       <r>   -2.0590    1.0000 </r>
       <r>   -2.0590    1.0000 </r>
       <r>   -2.0589    1.0000 </r>
       <r>   -2.0589    1.0000 </r>
       <r>   -2.0589    1.0000 </r>
       <r>   -1.2403    1.0000 </r>
       <r>   -1.2403    1.0000 </r>
       <r>   -1.2403    1.0000 </r>
       <r>   -1.2403    1.0000 </r>
       <r>    2.8944    1.0000 </r>
       <r>    2.8944    1.0000 </r>
       <r>    2.8944    1.0000 </r>
       <r>    2.8944    1.0000 </r>
       <r>    2.8944    1.0000 </r>
       <r>    2.8944    1.0000 </r>
       <r>    4.5603    1.0000 </r>
       <r>    4.5603    1.0000 </r>
       <r>    4.5603    1.0000 </r>
       <r>    4.5603    1.0000 </r>
       <r>    4.5603    1.0000 </r>
       <r>    4.5603    1.0000 </r>
       <r>    4.5603    1.0000 </r>
       <r>    4.5603    1.0000 </r>
       <r>    5.7613    1.0000 </r>
       <r>    5.7613    1.0000 </r>
       <r>    5.7613    1.0000 </r>
       <r>    6.3562    0.0000 </r>
       <r>    6.3562    0.0000 </r>
       <r>    6.3562    0.0000 </r>
       <r>    6.3562    0.0000 </r>
       <r>    6.3562    0.0000 </r>
       <r>    6.3562    0.0000 </r>
       <r>    7.2171    0.0000 </r>
       <r>    7.2171    0.0000 </r>
       <r>    7.2171    0.0000 </r>
       <r>    7.2171    0.0000 </r>
       <r>    8.2776    0.0000 </r>
       <r>    8.2778    0.0000 </r>
       <r>    8.2781    0.0000 </r>
       <r>    9.0357    0.0000 </r>
       <r>    9.0357    0.0000 </r>
       <r>    9.0493    0.0000 </r>
      </set>
      <set comment="kpoint 2">
       <r>   -6.1184    1.0000 </r>
       <r>   -4.2049    1.0000 </r>
       <r>   -3.8301    1.0000 </r>
       <r>   -3.8301    1.0000 </r>
       <r>   -3.8301    1.0000 </r>
       <r>   -2.6564    1.0000 </r>
       <r>   -2.6564    1.0000 </r>
       <r>   -2.6564    1.0000 </r>
       <r>   -1.3908    1.0000 </r>
       <r>   -1.3908    1.0000 </r>
       <r>   -1.3908    1.0000 </r>
       <r>   -1.1349    1.0000 </r>
       <r>   -1.1349    1.0000 </r>
       <r>   -1.1349    1.0000 </r>
       <r>   -0.7307    1.0000 </r>
       <r>    2.5607    1.0000 </r>
       <r>    2.5607    1.0000 </r>
       <r>    2.5607    1.0000 </r>
       <r>    2.9705    1.0000 </r>
       <r>    2.9705    1.0000 </r>
       <r>    2.9705    1.0000 </r>
       <r>    3.9659    1.0000 </r>
       <r>    3.9659    1.0000 </r>
       <r>    3.9659    1.0000 </r>
       <r>    4.3805    1.0000 </r>
       <r>    4.3805    1.0000 </r>
       <r>    4.3805    1.0000 </r>
       <r>    4.6098    1.0000 </r>
       <r>    4.6098    1.0000 </r>
       <r>    4.8935    1.0000 </r>
       <r>    5.6159    1.0000 </r>
       <r>    5.6159    1.0000 </r>
       <r>    6.4218    0.0000 </r>
       <r>    6.4218    0.0000 </r>
       <r>    6.4218    0.0000 </r>
       <r>    6.9972    0.0000 </r>
       <r>    6.9972    0.0000 </r>
       <r>    6.9972    0.0000 </r>
       <r>    7.2745    0.0000 </r>
       <r>    7.7352    0.0000 </r>
       <r>    7.7352    0.0000 </r>
       <r>    7.7352    0.0000 </r>
       <r>    8.3125    0.0000 </r>
       <r>    8.4907    0.0000 </r>
       <r>    8.4908    0.0000 </r>
       <r>    8.9533    0.0000 </r>
       <r>    8.9578    0.0000 </r>
       <r>    8.9916    0.0000 </r>
      </set>
      <set comment="kpoint 3">
       <r>   -5.8478    1.0000 </r>
       <r>   -4.8293    1.0000 </r>
       <r>   -3.7097    1.0000 </r>
       <r>   -3.7097    1.0000 </r>
       <r>   -3.7097    1.0000 </r>
       <r>   -3.1351    1.0000 </r>
       <r>   -3.1351    1.0000 </r>
       <r>   -3.1351    1.0000 </r>
       <r>   -0.8671    1.0000 </r>
       <r>   -0.8671    1.0000 </r>
       <r>   -0.8671    1.0000 </r>
       <r>   -0.8060    1.0000 </r>
       <r>   -0.8060    1.0000 </r>
       <r>   -0.8060    1.0000 </r>
       <r>    0.4038    1.0000 </r>
       <r>    2.0912    1.0000 </r>
       <r>    2.0912    1.0000 </r>
       <r>    2.0912    1.0000 </r>
       <r>    2.9590    1.0000 </r>
       <r>    2.9590    1.0000 </r>
       <r>    2.9590    1.0000 </r>
       <r>    3.1936    1.0000 </r>
       <r>    3.1936    1.0000 </r>
       <r>    3.1936    1.0000 </r>
       <r>    3.3645    1.0000 </r>
       <r>    3.9760    1.0000 </r>
       <r>    3.9760    1.0000 </r>
       <r>    3.9760    1.0000 </r>
       <r>    4.7576    1.0000 </r>
       <r>    4.7576    1.0000 </r>
       <r>    5.3074    1.0000 </r>
       <r>    5.3074    1.0000 </r>
       <r>    6.7152    0.0000 </r>
       <r>    6.7152    0.0000 </r>
       <r>    6.7152    0.0000 </r>
       <r>    7.4440    0.0000 </r>
       <r>    7.7122    0.0000 </r>
       <r>    7.7122    0.0000 </r>
       <r>    7.7122    0.0000 </r>
       <r>    8.0425    0.0000 </r>
       <r>    8.3834    0.0000 </r>
       <r>    8.3834    0.0000 </r>
       <r>    8.3834    0.0000 </r>
       <r>    8.9273    0.0000 </r>
       <r>    8.9274    0.0000 </r>
       <r>    9.2103    0.0000 </r>
       <r>    9.2112    0.0000 </r>
       <r>    9.8092    0.0000 </r>
      </set>
      <set comment="kpoint 4">
       <r>   -5.4083    1.0000 </r>
       <r>   -5.4083    1.0000 </r>
       <r>   -3.4840    1.0000 </r>
       <r>   -3.4840    1.0000 </r>
       <r>   -3.4840    1.0000 </r>
       <r>   -3.4840    1.0000 </r>
       <r>   -3.4840    1.0000 </r>
       <r>   -3.4840    1.0000 </r>
       <r>   -0.6321    1.0000 </r>
       <r>   -0.6321    1.0000 </r>
       <r>   -0.6321    1.0000 </r>
       <r>   -0.6321    1.0000 </r>
       <r>   -0.6321    1.0000 </r>
       <r>   -0.6321    1.0000 </r>
       <r>    1.8144    1.0000 </r>
       <r>    1.8144    1.0000 </r>
       <r>    2.1914    1.0000 </r>
       <r>    2.1914    1.0000 </r>
       <r>    2.1914    1.0000 </r>
       <r>    2.1914    1.0000 </r>
       <r>    2.1914    1.0000 </r>
       <r>    2.1914    1.0000 </r>
       <r>    3.5444    1.0000 </r>
       <r>    3.5444    1.0000 </r>
       <r>    3.5444    1.0000 </r>
       <r>    3.5444    1.0000 </r>
       <r>    3.5444    1.0000 </r>
       <r>    3.5444    1.0000 </r>
       <r>    4.9977    1.0000 </r>
       <r>    4.9977    1.0000 </r>
       <r>    4.9978    1.0000 </r>
       <r>    4.9978    1.0000 </r>
       <r>    7.1782    0.0000 </r>
       <r>    7.1782    0.0000 </r>
       <r>    7.1782    0.0000 </r>
       <r>    7.1783    0.0000 </r>
       <r>    7.1783    0.0000 </r>
       <r>    7.1783    0.0000 </r>
       <r>    7.7130    0.0000 </r>
       <r>    7.7130    0.0000 </r>
       <r>    9.2173    0.0000 </r>
       <r>    9.2173    0.0000 </r>
       <r>    9.2174    0.0000 </r>
       <r>    9.2176    0.0000 </r>
       <r>   10.1171    0.0000 </r>
       <r>   10.1171    0.0000 </r>
       <r>   10.1171    0.0000 </r>
       <r>   10.1173    0.0000 </r>
      </set>
      <set comment="kpoint 5">
       <r>   -6.0879    1.0000 </r>
       <r>   -3.9525    1.0000 </r>
       <r>   -3.9525    1.0000 </r>
       <r>   -3.9525    1.0000 </r>
       <r>   -3.9525    1.0000 </r>
       <r>   -3.2714    1.0000 </r>
       <r>   -2.0198    1.0000 </r>
       <r>   -2.0198    1.0000 </r>
       <r>   -2.0198    1.0000 </r>
       <r>   -2.0198    1.0000 </r>
       <r>   -0.9556    1.0000 </r>
       <r>   -0.9556    1.0000 </r>
       <r>   -0.9556    1.0000 </r>
       <r>   -0.9556    1.0000 </r>
       <r>   -0.7026    1.0000 </r>
       <r>    2.5767    1.0000 </r>
       <r>    2.5767    1.0000 </r>
       <r>    2.5767    1.0000 </r>
       <r>    2.5767    1.0000 </r>
       <r>    3.0041    1.0000 </r>
       <r>    3.0041    1.0000 </r>
       <r>    3.8693    1.0000 </r>
       <r>    3.8693    1.0000 </r>
       <r>    3.8693    1.0000 </r>
       <r>    3.8693    1.0000 </r>
       <r>    4.5252    1.0000 </r>
       <r>    4.5252    1.0000 </r>
       <r>    4.5252    1.0000 </r>
       <r>    4.5252    1.0000 </r>
       <r>    5.0629    1.0000 </r>
       <r>    5.3253    1.0000 </r>
       <r>    5.3253    1.0000 </r>
       <r>    6.2229    0.0000 </r>
       <r>    6.8198    0.0000 </r>
       <r>    6.9809    0.0000 </r>
       <r>    6.9809    0.0000 </r>
       <r>    6.9809    0.0000 </r>
       <r>    6.9809    0.0000 </r>
       <r>    7.7630    0.0000 </r>
       <r>    7.7630    0.0000 </r>
       <r>    7.7630    0.0000 </r>
       <r>    7.7631    0.0000 </r>
       <r>    7.9908    0.0000 </r>
       <r>    8.8621    0.0000 </r>
       <r>    8.8625    0.0000 </r>
       <r>    9.0692    0.0000 </r>
       <r>    9.0714    0.0000 </r>
       <r>    9.0749    0.0000 </r>
      </set>
      <set comment="kpoint 6">
       <r>   -5.8766    1.0000 </r>
       <r>   -4.5389    1.0000 </r>
       <r>   -3.9674    1.0000 </r>
       <r>   -3.9674    1.0000 </r>
       <r>   -3.7666    1.0000 </r>
       <r>   -3.5937    1.0000 </r>
       <r>   -2.5614    1.0000 </r>
       <r>   -2.5614    1.0000 </r>
       <r>   -1.3814    1.0000 </r>
       <r>   -1.3814    1.0000 </r>
       <r>   -1.0287    1.0000 </r>
       <r>   -0.6221    1.0000 </r>
       <r>   -0.6221    1.0000 </r>
       <r>   -0.0368    1.0000 </r>
       <r>    0.0221    1.0000 </r>
       <r>    1.9696    1.0000 </r>
       <r>    1.9696    1.0000 </r>
       <r>    2.7432    1.0000 </r>
       <r>    2.7659    1.0000 </r>
       <r>    2.7659    1.0000 </r>
       <r>    2.8331    1.0000 </r>
       <r>    3.1756    1.0000 </r>
       <r>    3.1756    1.0000 </r>
       <r>    3.1869    1.0000 </r>
       <r>    3.8223    1.0000 </r>
       <r>    3.8953    1.0000 </r>
       <r>    4.1619    1.0000 </r>
       <r>    4.1962    1.0000 </r>
       <r>    4.1962    1.0000 </r>
       <r>    4.7662    1.0000 </r>
       <r>    4.9590    1.0000 </r>
       <r>    5.1510    1.0000 </r>
       <r>    6.5472    0.0000 </r>
       <r>    7.1732    0.0000 </r>
       <r>    7.1732    0.0000 </r>
       <r>    7.5125    0.0000 </r>
       <r>    7.8603    0.0000 </r>
       <r>    7.8975    0.0000 </r>
       <r>    8.0079    0.0000 </r>
       <r>    8.2933    0.0000 </r>
       <r>    8.2933    0.0000 </r>
       <r>    8.3082    0.0000 </r>
       <r>    8.3082    0.0000 </r>
       <r>    8.8807    0.0000 </r>
       <r>    8.8813    0.0000 </r>
       <r>    8.9376    0.0000 </r>
       <r>    9.2611    0.0000 </r>
       <r>    9.2977    0.0000 </r>
      </set>
      <set comment="kpoint 7">
       <r>   -5.4919    1.0000 </r>
       <r>   -5.1493    1.0000 </r>
       <r>   -4.1116    1.0000 </r>
       <r>   -3.8528    1.0000 </r>
       <r>   -3.8528    1.0000 </r>
       <r>   -3.1564    1.0000 </r>
       <r>   -3.0022    1.0000 </r>
       <r>   -3.0022    1.0000 </r>
       <r>   -1.0510    1.0000 </r>
       <r>   -0.9813    1.0000 </r>
       <r>   -0.9813    1.0000 </r>
       <r>   -0.2770    1.0000 </r>
       <r>   -0.2770    1.0000 </r>
       <r>    0.2992    1.0000 </r>
       <r>    1.3408    1.0000 </r>
       <r>    1.7709    1.0000 </r>
       <r>    1.7709    1.0000 </r>
       <r>    1.8252    1.0000 </r>
       <r>    2.3154    1.0000 </r>
       <r>    2.5070    1.0000 </r>
       <r>    2.5070    1.0000 </r>
       <r>    2.7431    1.0000 </r>
       <r>    3.1184    1.0000 </r>
       <r>    3.1184    1.0000 </r>
       <r>    3.5048    1.0000 </r>
       <r>    3.6175    1.0000 </r>
       <r>    3.6175    1.0000 </r>
       <r>    3.7259    1.0000 </r>
       <r>    4.0540    1.0000 </r>
       <r>    4.6455    1.0000 </r>
       <r>    4.8244    1.0000 </r>
       <r>    5.0776    1.0000 </r>
       <r>    7.0942    0.0000 </r>
       <r>    7.3592    0.0000 </r>
       <r>    7.5439    0.0000 </r>
       <r>    7.5439    0.0000 </r>
       <r>    7.9155    0.0000 </r>
       <r>    7.9155    0.0000 </r>
       <r>    8.1261    0.0000 </r>
       <r>    8.1292    0.0000 </r>
       <r>    8.9141    0.0000 </r>
       <r>    8.9245    0.0000 </r>
       <r>    9.1782    0.0000 </r>
       <r>    9.4471    0.0000 </r>
       <r>    9.7855    0.0000 </r>
       <r>    9.8952    0.0000 </r>
       <r>    9.9072    0.0000 </r>
       <r>    9.9743    0.0000 </r>
      </set>
      <set comment="kpoint 8">
       <r>   -5.6393    1.0000 </r>
       <r>   -4.9544    1.0000 </r>
       <r>   -4.2976    1.0000 </r>
       <r>   -3.5955    1.0000 </r>
       <r>   -3.5955    1.0000 </r>
       <r>   -3.3514    1.0000 </r>
       <r>   -3.3514    1.0000 </r>
       <r>   -2.6615    1.0000 </r>
       <r>   -1.3002    1.0000 </r>
       <r>   -0.9895    1.0000 </r>
       <r>   -0.9895    1.0000 </r>
       <r>   -0.2628    1.0000 </r>
       <r>   -0.2628    1.0000 </r>
       <r>    0.0729    1.0000 </r>
       <r>    0.8750    1.0000 </r>
       <r>    1.5041    1.0000 </r>
       <r>    2.2599    1.0000 </r>
       <r>    2.2599    1.0000 </r>
       <r>    2.2985    1.0000 </r>
       <r>    2.2986    1.0000 </r>
       <r>    2.8041    1.0000 </r>
       <r>    3.1103    1.0000 </r>
       <r>    3.1103    1.0000 </r>
       <r>    3.3057    1.0000 </r>
       <r>    3.3484    1.0000 </r>
       <r>    3.5994    1.0000 </r>
       <r>    3.5994    1.0000 </r>
       <r>    3.9208    1.0000 </r>
       <r>    4.3579    1.0000 </r>
       <r>    4.4364    1.0000 </r>
       <r>    4.4693    1.0000 </r>
       <r>    5.4082    1.0000 </r>
       <r>    6.8925    0.0000 </r>
       <r>    7.3925    0.0000 </r>
       <r>    7.3925    0.0000 </r>
       <r>    7.6818    0.0000 </r>
       <r>    7.9821    0.0000 </r>
       <r>    8.0436    0.0000 </r>
       <r>    8.0436    0.0000 </r>
       <r>    8.4142    0.0000 </r>
       <r>    8.6729    0.0000 </r>
       <r>    8.6729    0.0000 </r>
       <r>    8.8837    0.0000 </r>
       <r>    8.9981    0.0000 </r>
       <r>    9.2396    0.0000 </r>
       <r>    9.6229    0.0000 </r>
       <r>    9.6542    0.0000 </r>
       <r>    9.8453    0.0000 </r>
      </set>
      <set comment="kpoint 9">
       <r>   -5.9672    1.0000 </r>
       <r>   -4.3257    1.0000 </r>
       <r>   -4.3257    1.0000 </r>
       <r>   -3.6252    1.0000 </r>
       <r>   -3.6252    1.0000 </r>
       <r>   -3.1932    1.0000 </r>
       <r>   -3.1932    1.0000 </r>
       <r>   -2.1961    1.0000 </r>
       <r>   -1.7968    1.0000 </r>
       <r>   -1.1247    1.0000 </r>
       <r>   -1.1247    1.0000 </r>
       <r>   -0.7382    1.0000 </r>
       <r>   -0.7382    1.0000 </r>
       <r>   -0.3597    1.0000 </r>
       <r>   -0.3597    1.0000 </r>
       <r>    1.8753    1.0000 </r>
       <r>    2.6114    1.0000 </r>
       <r>    2.6114    1.0000 </r>
       <r>    2.8109    1.0000 </r>
       <r>    2.8109    1.0000 </r>
       <r>    3.0882    1.0000 </r>
       <r>    3.1404    1.0000 </r>
       <r>    3.1404    1.0000 </r>
       <r>    4.1038    1.0000 </r>
       <r>    4.1038    1.0000 </r>
       <r>    4.1620    1.0000 </r>
       <r>    4.1720    1.0000 </r>
       <r>    4.1720    1.0000 </r>
       <r>    4.3480    1.0000 </r>
       <r>    4.3480    1.0000 </r>
       <r>    4.8839    1.0000 </r>
       <r>    5.6443    1.0000 </r>
       <r>    6.5814    0.0000 </r>
       <r>    6.8848    0.0000 </r>
       <r>    6.8848    0.0000 </r>
       <r>    7.3869    0.0000 </r>
       <r>    7.3869    0.0000 </r>
       <r>    7.8154    0.0000 </r>
       <r>    7.8154    0.0000 </r>
       <r>    8.2109    0.0000 </r>
       <r>    8.2735    0.0000 </r>
       <r>    8.2736    0.0000 </r>
       <r>    8.5271    0.0000 </r>
       <r>    8.6426    0.0000 </r>
       <r>    8.6727    0.0000 </r>
       <r>    8.7907    0.0000 </r>
       <r>    8.8018    0.0000 </r>
       <r>    8.9555    0.0000 </r>
      </set>
      <set comment="kpoint 10">
       <r>   -5.7247    1.0000 </r>
       <r>   -4.3025    1.0000 </r>
       <r>   -4.0976    1.0000 </r>
       <r>   -4.0975    1.0000 </r>
       <r>   -4.0975    1.0000 </r>
       <r>   -4.0975    1.0000 </r>
       <r>   -1.9357    1.0000 </r>
       <r>   -1.9357    1.0000 </r>
       <r>   -1.9357    1.0000 </r>
       <r>   -1.9357    1.0000 </r>
       <r>   -0.2641    1.0000 </r>
       <r>   -0.2641    1.0000 </r>
       <r>   -0.2641    1.0000 </r>
       <r>   -0.2641    1.0000 </r>
       <r>    0.7490    1.0000 </r>
       <r>    2.0777    1.0000 </r>
       <r>    2.0777    1.0000 </r>
       <r>    2.0777    1.0000 </r>
       <r>    2.0777    1.0000 </r>
       <r>    2.6846    1.0000 </r>
       <r>    2.6846    1.0000 </r>
       <r>    2.6846    1.0000 </r>
       <r>    2.6846    1.0000 </r>
       <r>    3.3296    1.0000 </r>
       <r>    3.3296    1.0000 </r>
       <r>    3.7181    1.0000 </r>
       <r>    4.4591    1.0000 </r>
       <r>    4.4591    1.0000 </r>
       <r>    4.4591    1.0000 </r>
       <r>    4.4591    1.0000 </r>
       <r>    4.5574    1.0000 </r>
       <r>    4.5574    1.0000 </r>
       <r>    6.3851    0.0000 </r>
       <r>    7.3868    0.0000 </r>
       <r>    7.6373    0.0000 </r>
       <r>    8.1323    0.0000 </r>
       <r>    8.1323    0.0000 </r>
       <r>    8.1323    0.0000 </r>
       <r>    8.1323    0.0000 </r>
       <r>    8.4178    0.0000 </r>
       <r>    8.4178    0.0000 </r>
       <r>    8.4178    0.0000 </r>
       <r>    8.4178    0.0000 </r>
       <r>    9.8064    0.0000 </r>
       <r>    9.8139    0.0000 </r>
       <r>    9.8214    0.0000 </r>
       <r>    9.8502    0.0000 </r>
       <r>    9.9446    0.0000 </r>
      </set>
      <set comment="kpoint 11">
       <r>   -5.3970    1.0000 </r>
       <r>   -4.7249    1.0000 </r>
       <r>   -4.6886    1.0000 </r>
       <r>   -4.0827    1.0000 </r>
       <r>   -4.0827    1.0000 </r>
       <r>   -3.5354    1.0000 </r>
       <r>   -2.4504    1.0000 </r>
       <r>   -2.4503    1.0000 </r>
       <r>   -1.3890    1.0000 </r>
       <r>   -1.3889    1.0000 </r>
       <r>   -0.5528    1.0000 </r>
       <r>    0.0830    1.0000 </r>
       <r>    0.0830    1.0000 </r>
       <r>    0.8887    1.0000 </r>
       <r>    1.3310    1.0000 </r>
       <r>    1.6322    1.0000 </r>
       <r>    1.6322    1.0000 </r>
       <r>    1.7029    1.0000 </r>
       <r>    2.2112    1.0000 </r>
       <r>    2.2112    1.0000 </r>
       <r>    2.4217    1.0000 </r>
       <r>    2.4217    1.0000 </r>
       <r>    2.6281    1.0000 </r>
       <r>    2.8268    1.0000 </r>
       <r>    3.3849    1.0000 </r>
       <r>    3.6115    1.0000 </r>
       <r>    4.0328    1.0000 </r>
       <r>    4.0939    1.0000 </r>
       <r>    4.0939    1.0000 </r>
       <r>    4.2060    1.0000 </r>
       <r>    4.2221    1.0000 </r>
       <r>    4.8298    1.0000 </r>
       <r>    6.8820    0.0000 </r>
       <r>    7.4049    0.0000 </r>
       <r>    7.6891    0.0000 </r>
       <r>    8.4313    0.0000 </r>
       <r>    8.4743    0.0000 </r>
       <r>    8.6647    0.0000 </r>
       <r>    8.6647    0.0000 </r>
       <r>    8.6944    0.0000 </r>
       <r>    8.6944    0.0000 </r>
       <r>    9.2904    0.0000 </r>
       <r>    9.2904    0.0000 </r>
       <r>    9.5719    0.0000 </r>
       <r>    9.7110    0.0000 </r>
       <r>    9.8633    0.0000 </r>
       <r>    9.9556    0.0000 </r>
       <r>    9.9618    0.0000 </r>
      </set>
      <set comment="kpoint 12">
       <r>   -5.2584    1.0000 </r>
       <r>   -4.9078    1.0000 </r>
       <r>   -4.9078    1.0000 </r>
       <r>   -3.9151    1.0000 </r>
       <r>   -3.9151    1.0000 </r>
       <r>   -2.9346    1.0000 </r>
       <r>   -2.9241    1.0000 </r>
       <r>   -2.9241    1.0000 </r>
       <r>   -1.0911    1.0000 </r>
       <r>   -1.0910    1.0000 </r>
       <r>   -1.0145    1.0000 </r>
       <r>    0.1141    1.0000 </r>
       <r>    0.1141    1.0000 </r>
       <r>    1.2995    1.0000 </r>
       <r>    1.3127    1.0000 </r>
       <r>    1.3127    1.0000 </r>
       <r>    1.7110    1.0000 </r>
       <r>    1.7110    1.0000 </r>
       <r>    2.0343    1.0000 </r>
       <r>    2.1534    1.0000 </r>
       <r>    2.1534    1.0000 </r>
       <r>    2.9709    1.0000 </r>
       <r>    2.9709    1.0000 </r>
       <r>    3.3182    1.0000 </r>
       <r>    3.4439    1.0000 </r>
       <r>    3.4439    1.0000 </r>
       <r>    3.6386    1.0000 </r>
       <r>    3.7480    1.0000 </r>
       <r>    3.7480    1.0000 </r>
       <r>    4.0038    1.0000 </r>
       <r>    4.0038    1.0000 </r>
       <r>    5.1964    1.0000 </r>
       <r>    7.2238    0.0000 </r>
       <r>    7.6425    0.0000 </r>
       <r>    7.6425    0.0000 </r>
       <r>    8.5356    0.0000 </r>
       <r>    8.5356    0.0000 </r>
       <r>    8.7426    0.0000 </r>
       <r>    9.0217    0.0000 </r>
       <r>    9.0218    0.0000 </r>
       <r>    9.2461    0.0000 </r>
       <r>    9.2466    0.0000 </r>
       <r>    9.2711    0.0000 </r>
       <r>    9.3725    0.0000 </r>
       <r>    9.3736    0.0000 </r>
       <r>    9.5406    0.0000 </r>
       <r>    9.7568    0.0000 </r>
       <r>    9.7676    0.0000 </r>
      </set>
      <set comment="kpoint 13">
       <r>   -5.1260    1.0000 </r>
       <r>   -5.1260    1.0000 </r>
       <r>   -4.1607    1.0000 </r>
       <r>   -4.1607    1.0000 </r>
       <r>   -4.1607    1.0000 </r>
       <r>   -4.1607    1.0000 </r>
       <r>   -1.8902    1.0000 </r>
       <r>   -1.8902    1.0000 </r>
       <r>   -1.8902    1.0000 </r>
       <r>   -1.8902    1.0000 </r>
       <r>    0.2736    1.0000 </r>
       <r>    0.2736    1.0000 </r>
       <r>    0.2736    1.0000 </r>
       <r>    0.2736    1.0000 </r>
       <r>    1.8652    1.0000 </r>
       <r>    1.8652    1.0000 </r>
       <r>    1.8652    1.0000 </r>
       <r>    1.8652    1.0000 </r>
       <r>    1.9668    1.0000 </r>
       <r>    1.9668    1.0000 </r>
       <r>    1.9668    1.0000 </r>
       <r>    1.9668    1.0000 </r>
       <r>    2.2415    1.0000 </r>
       <r>    2.2415    1.0000 </r>
       <r>    3.8583    1.0000 </r>
       <r>    3.8583    1.0000 </r>
       <r>    3.8583    1.0000 </r>
       <r>    3.8583    1.0000 </r>
       <r>    4.4278    1.0000 </r>
       <r>    4.4278    1.0000 </r>
       <r>    4.4278    1.0000 </r>
       <r>    4.4278    1.0000 </r>
       <r>    6.7979    0.0000 </r>
       <r>    6.7979    0.0000 </r>
       <r>    8.1251    0.0000 </r>
       <r>    8.1251    0.0000 </r>
       <r>    8.1251    0.0000 </r>
       <r>    8.1251    0.0000 </r>
       <r>    8.7867    0.0000 </r>
       <r>    8.7867    0.0000 </r>
       <r>    9.9342    0.0000 </r>
       <r>    9.9344    0.0000 </r>
       <r>    9.9348    0.0000 </r>
       <r>    9.9365    0.0000 </r>
       <r>   10.5106    0.0000 </r>
       <r>   10.5352    0.0000 </r>
       <r>   10.6341    0.0000 </r>
       <r>   10.6845    0.0000 </r>
      </set>
      <set comment="kpoint 14">
       <r>   -5.6074    1.0000 </r>
       <r>   -4.5929    1.0000 </r>
       <r>   -4.5929    1.0000 </r>
       <r>   -4.2033    1.0000 </r>
       <r>   -3.4884    1.0000 </r>
       <r>   -3.4884    1.0000 </r>
       <r>   -2.9769    1.0000 </r>
       <r>   -2.4026    1.0000 </r>
       <r>   -1.4972    1.0000 </r>
       <r>   -0.8814    1.0000 </r>
       <r>   -0.8006    1.0000 </r>
       <r>   -0.8006    1.0000 </r>
       <r>    0.4733    1.0000 </r>
       <r>    0.4733    1.0000 </r>
       <r>    0.5734    1.0000 </r>
       <r>    1.4633    1.0000 </r>
       <r>    1.9533    1.0000 </r>
       <r>    2.1396    1.0000 </r>
       <r>    2.1396    1.0000 </r>
       <r>    2.5781    1.0000 </r>
       <r>    2.8957    1.0000 </r>
       <r>    2.9645    1.0000 </r>
       <r>    3.0252    1.0000 </r>
       <r>    3.3021    1.0000 </r>
       <r>    3.3021    1.0000 </r>
       <r>    3.3308    1.0000 </r>
       <r>    3.7738    1.0000 </r>
       <r>    3.7738    1.0000 </r>
       <r>    4.1063    1.0000 </r>
       <r>    4.4443    1.0000 </r>
       <r>    4.4443    1.0000 </r>
       <r>    5.0509    1.0000 </r>
       <r>    7.0628    0.0000 </r>
       <r>    7.4124    0.0000 </r>
       <r>    8.0308    0.0000 </r>
       <r>    8.1308    0.0000 </r>
       <r>    8.2973    0.0000 </r>
       <r>    8.2973    0.0000 </r>
       <r>    8.3478    0.0000 </r>
       <r>    8.3478    0.0000 </r>
       <r>    8.3575    0.0000 </r>
       <r>    8.7491    0.0000 </r>
       <r>    9.0836    0.0000 </r>
       <r>    9.0841    0.0000 </r>
       <r>    9.2592    0.0000 </r>
       <r>    9.4302    0.0000 </r>
       <r>    9.4310    0.0000 </r>
       <r>    9.8466    0.0000 </r>
      </set>
      <set comment="kpoint 15">
       <r>   -5.1701    1.0000 </r>
       <r>   -5.1701    1.0000 </r>
       <r>   -4.4811    1.0000 </r>
       <r>   -4.4811    1.0000 </r>
       <r>   -3.2878    1.0000 </r>
       <r>   -3.2878    1.0000 </r>
       <r>   -2.9294    1.0000 </r>
       <r>   -2.9294    1.0000 </r>
       <r>   -1.0538    1.0000 </r>
       <r>   -1.0538    1.0000 </r>
       <r>   -0.6581    1.0000 </r>
       <r>   -0.6581    1.0000 </r>
       <r>    0.7831    1.0000 </r>
       <r>    0.7831    1.0000 </r>
       <r>    1.4784    1.0000 </r>
       <r>    1.4784    1.0000 </r>
       <r>    1.7802    1.0000 </r>
       <r>    1.7802    1.0000 </r>
       <r>    1.8038    1.0000 </r>
       <r>    1.8039    1.0000 </r>
       <r>    2.8649    1.0000 </r>
       <r>    2.8649    1.0000 </r>
       <r>    3.1019    1.0000 </r>
       <r>    3.1020    1.0000 </r>
       <r>    3.3187    1.0000 </r>
       <r>    3.3187    1.0000 </r>
       <r>    3.5709    1.0000 </r>
       <r>    3.5709    1.0000 </r>
       <r>    3.8304    1.0000 </r>
       <r>    3.8304    1.0000 </r>
       <r>    4.7739    1.0000 </r>
       <r>    4.7740    1.0000 </r>
       <r>    7.8000    0.0000 </r>
       <r>    7.8000    0.0000 </r>
       <r>    7.8031    0.0000 </r>
       <r>    7.8031    0.0000 </r>
       <r>    8.3094    0.0000 </r>
       <r>    8.3094    0.0000 </r>
       <r>    8.9017    0.0000 </r>
       <r>    8.9017    0.0000 </r>
       <r>    9.2228    0.0000 </r>
       <r>    9.2230    0.0000 </r>
       <r>    9.4111    0.0000 </r>
       <r>    9.4120    0.0000 </r>
       <r>    9.4467    0.0000 </r>
       <r>    9.4472    0.0000 </r>
       <r>   10.2657    0.0000 </r>
       <r>   10.2838    0.0000 </r>
      </set>
      <set comment="kpoint 16">
       <r>   -5.0152    1.0000 </r>
       <r>   -5.0152    1.0000 </r>
       <r>   -4.6877    1.0000 </r>
       <r>   -4.6877    1.0000 </r>
       <r>   -3.4704    1.0000 </r>
       <r>   -3.4704    1.0000 </r>
       <r>   -2.6822    1.0000 </r>
       <r>   -2.6822    1.0000 </r>
       <r>   -1.1595    1.0000 </r>
       <r>   -1.1595    1.0000 </r>
       <r>   -0.4611    1.0000 </r>
       <r>   -0.4611    1.0000 </r>
       <r>    1.0658    1.0000 </r>
       <r>    1.0658    1.0000 </r>
       <r>    1.5057    1.0000 </r>
       <r>    1.5057    1.0000 </r>
       <r>    1.5651    1.0000 </r>
       <r>    1.5651    1.0000 </r>
       <r>    1.8360    1.0000 </r>
       <r>    1.8360    1.0000 </r>
       <r>    2.6270    1.0000 </r>
       <r>    2.6270    1.0000 </r>
       <r>    2.6493    1.0000 </r>
       <r>    2.6493    1.0000 </r>
       <r>    3.4071    1.0000 </r>
       <r>    3.4071    1.0000 </r>
       <r>    3.6671    1.0000 </r>
       <r>    3.6671    1.0000 </r>
       <r>    4.1226    1.0000 </r>
       <r>    4.1226    1.0000 </r>
       <r>    4.4799    1.0000 </r>
       <r>    4.4799    1.0000 </r>
       <r>    7.4698    0.0000 </r>
       <r>    7.4698    0.0000 </r>
       <r>    8.2009    0.0000 </r>
       <r>    8.2009    0.0000 </r>
       <r>    8.9046    0.0000 </r>
       <r>    8.9046    0.0000 </r>
       <r>    8.9969    0.0000 </r>
       <r>    8.9969    0.0000 </r>
       <r>    9.0564    0.0000 </r>
       <r>    9.0565    0.0000 </r>
       <r>    9.1886    0.0000 </r>
       <r>    9.1886    0.0000 </r>
       <r>   10.1592    0.0000 </r>
       <r>   10.1686    0.0000 </r>
       <r>   10.3440    0.0000 </r>
       <r>   10.4157    0.0000 </r>
      </set>
     </set>
    </set>
   </array>
  </eigenvalues>
  <separator name="orbital magnetization" >
   <v name="MAGDIPOLOUT">      0.00000000      0.00000000      0.00000000</v>
  </separator>
  <dos>
   <i name="efermi">      5.81954035 </i>
   <total>
    <array>
     <dimension dim="1">gridpoints</dimension>
     <dimension dim="2">spin</dimension>
     <field>energy</field>
     <field>total</field>
     <field>integrated</field>
     <set>
      <set comment="spin 1">
       <r>    -7.0542     0.0000     0.0000 </r>
       <r>    -7.0356     0.0000     0.0000 </r>
       <r>    -7.0170     0.0000     0.0000 </r>
       <r>    -6.9984     0.0000     0.0000 </r>
       <r>    -6.9798     0.0000     0.0000 </r>
       <r>    -6.9612     0.0000     0.0000 </r>
       <r>    -6.9426     0.0000     0.0000 </r>
       <r>    -6.9240     0.0000     0.0000 </r>
       <r>    -6.9054     0.0000     0.0000 </r>
       <r>    -6.8868     0.0000     0.0000 </r>
       <r>    -6.8682     0.0000     0.0000 </r>
       <r>    -6.8496     0.0000     0.0000 </r>
       <r>    -6.8310     0.0000     0.0000 </r>
       <r>    -6.8124     0.0000     0.0000 </r>
       <r>    -6.7938     0.0000     0.0000 </r>
       <r>    -6.7752     0.0000     0.0000 </r>
       <r>    -6.7566     0.0000     0.0000 </r>
       <r>    -6.7380     0.0000     0.0000 </r>
       <r>    -6.7194     0.0000     0.0000 </r>
       <r>    -6.7008     0.0000     0.0000 </r>
       <r>    -6.6822     0.0000     0.0000 </r>
       <r>    -6.6636     0.0000     0.0000 </r>
       <r>    -6.6450     0.0000     0.0000 </r>
       <r>    -6.6264     0.0000     0.0000 </r>
       <r>    -6.6078     0.0000     0.0000 </r>
       <r>    -6.5892     0.0000     0.0000 </r>
       <r>    -6.5706     0.0000     0.0000 </r>
       <r>    -6.5520     0.0000     0.0000 </r>
       <r>    -6.5334     0.0000     0.0000 </r>
       <r>    -6.5148     0.0000     0.0000 </r>
       <r>    -6.4962     0.0000     0.0000 </r>
       <r>    -6.4776     0.0000     0.0000 </r>
       <r>    -6.4590     0.0000     0.0000 </r>
       <r>    -6.4404     0.0000     0.0000 </r>
       <r>    -6.4218     0.0000     0.0000 </r>
       <r>    -6.4031     0.0000     0.0000 </r>
       <r>    -6.3845     0.0000     0.0000 </r>
       <r>    -6.3659     0.0000     0.0000 </r>
       <r>    -6.3473     0.0000     0.0000 </r>
       <r>    -6.3287     0.0000     0.0000 </r>
       <r>    -6.3101     0.0000     0.0000 </r>
       <r>    -6.2915     0.0000     0.0000 </r>
       <r>    -6.2729     0.0000     0.0000 </r>
       <r>    -6.2543     0.0000     0.0000 </r>
       <r>    -6.2357     0.0001     0.0000 </r>
       <r>    -6.2171     0.0701     0.0013 </r>
       <r>    -6.1985     0.3977     0.0087 </r>
       <r>    -6.1799     0.0299     0.0093 </r>
       <r>    -6.1613     0.0000     0.0093 </r>
       <r>    -6.1427     0.0012     0.0093 </r>
       <r>    -6.1241     0.8299     0.0247 </r>
       <r>    -6.1055     3.0328     0.0811 </r>
       <r>    -6.0869     1.7706     0.1141 </r>
       <r>    -6.0683     1.3257     0.1387 </r>
       <r>    -6.0497     0.0085     0.1389 </r>
       <r>    -6.0311     0.0000     0.1389 </r>
       <r>    -6.0125     0.0000     0.1389 </r>
       <r>    -5.9939     0.0005     0.1389 </r>
       <r>    -5.9753     0.7562     0.1530 </r>
       <r>    -5.9567     4.8084     0.2424 </r>
       <r>    -5.9381     0.4079     0.2500 </r>
       <r>    -5.9195     0.0001     0.2500 </r>
       <r>    -5.9009     0.0035     0.2501 </r>
       <r>    -5.8823     2.5006     0.2966 </r>
       <r>    -5.8637     9.0826     0.4655 </r>
       <r>    -5.8451     2.9396     0.5202 </r>
       <r>    -5.8265     1.3967     0.5462 </r>
       <r>    -5.8079     0.0052     0.5463 </r>
       <r>    -5.7893     0.0000     0.5463 </r>
       <r>    -5.7707     0.0000     0.5463 </r>
       <r>    -5.7521     0.0002     0.5463 </r>
       <r>    -5.7335     0.3231     0.5523 </r>
       <r>    -5.7149     2.4197     0.5973 </r>
       <r>    -5.6963     0.2434     0.6019 </r>
       <r>    -5.6777     0.0001     0.6019 </r>
       <r>    -5.6591     0.0306     0.6024 </r>
       <r>    -5.6405     5.1452     0.6981 </r>
       <r>    -5.6219     6.9314     0.8271 </r>
       <r>    -5.6033     8.4481     0.9842 </r>
       <r>    -5.5847     3.3291     1.0462 </r>
       <r>    -5.5661     0.0078     1.0463 </r>
       <r>    -5.5475     0.0000     1.0463 </r>
       <r>    -5.5289     0.0000     1.0463 </r>
       <r>    -5.5103     0.0567     1.0474 </r>
       <r>    -5.4917     6.0919     1.1607 </r>
       <r>    -5.4730     5.7519     1.2677 </r>
       <r>    -5.4544     0.0456     1.2685 </r>
       <r>    -5.4358     0.0002     1.2685 </r>
       <r>    -5.4172     0.4386     1.2767 </r>
       <r>    -5.3986     8.1029     1.4274 </r>
       <r>    -5.3800     7.2894     1.5630 </r>
       <r>    -5.3614     0.0971     1.5648 </r>
       <r>    -5.3428     0.0000     1.5648 </r>
       <r>    -5.3242     0.0000     1.5648 </r>
       <r>    -5.3056     0.0000     1.5648 </r>
       <r>    -5.2870     0.0002     1.5648 </r>
       <r>    -5.2684     0.4647     1.5735 </r>
       <r>    -5.2498     4.8334     1.6634 </r>
       <r>    -5.2312     0.6744     1.6759 </r>
       <r>    -5.2126     0.0004     1.6759 </r>
       <r>    -5.1940     0.0084     1.6761 </r>
       <r>    -5.1754     5.3572     1.7757 </r>
       <r>    -5.1568    19.5161     2.1388 </r>
       <r>    -5.1382    10.3841     2.3319 </r>
       <r>    -5.1196     3.0149     2.3880 </r>
       <r>    -5.1010     0.5436     2.3981 </r>
       <r>    -5.0824     0.0006     2.3981 </r>
       <r>    -5.0638     0.0000     2.3981 </r>
       <r>    -5.0452     0.0001     2.3982 </r>
       <r>    -5.0266     0.6308     2.4099 </r>
       <r>    -5.0080     9.4560     2.5858 </r>
       <r>    -4.9894     1.8576     2.6203 </r>
       <r>    -4.9708     0.1243     2.6227 </r>
       <r>    -4.9522     7.3249     2.7589 </r>
       <r>    -4.9336     4.4808     2.8423 </r>
       <r>    -4.9150     1.8514     2.8767 </r>
       <r>    -4.8964     9.4699     3.0529 </r>
       <r>    -4.8778     0.6425     3.0648 </r>
       <r>    -4.8592     0.0002     3.0648 </r>
       <r>    -4.8406     0.2218     3.0689 </r>
       <r>    -4.8220     3.1652     3.1278 </r>
       <r>    -4.8034     0.5945     3.1389 </r>
       <r>    -4.7848     0.0005     3.1389 </r>
       <r>    -4.7662     0.0000     3.1389 </r>
       <r>    -4.7476     0.0081     3.1390 </r>
       <r>    -4.7290     3.3714     3.2018 </r>
       <r>    -4.7104     8.3497     3.3571 </r>
       <r>    -4.6918     7.4839     3.4963 </r>
       <r>    -4.6732    16.2112     3.7979 </r>
       <r>    -4.6546     0.4141     3.8056 </r>
       <r>    -4.6360     0.0000     3.8056 </r>
       <r>    -4.6174     0.0066     3.8057 </r>
       <r>    -4.5988     4.8894     3.8966 </r>
       <r>    -4.5802    18.1501     4.2343 </r>
       <r>    -4.5615     0.8542     4.2501 </r>
       <r>    -4.5429     3.3859     4.3131 </r>
       <r>    -4.5243     8.3169     4.4678 </r>
       <r>    -4.5057     0.2413     4.4723 </r>
       <r>    -4.4871     4.7188     4.5601 </r>
       <r>    -4.4685    18.2727     4.9000 </r>
       <r>    -4.4499     0.8947     4.9167 </r>
       <r>    -4.4313     0.0001     4.9167 </r>
       <r>    -4.4127     0.0000     4.9167 </r>
       <r>    -4.3941     0.0000     4.9167 </r>
       <r>    -4.3755     0.0000     4.9167 </r>
       <r>    -4.3569     0.0001     4.9167 </r>
       <r>    -4.3383     0.4435     4.9249 </r>
       <r>    -4.3197     9.1595     5.0953 </r>
       <r>    -4.3011     7.7419     5.2393 </r>
       <r>    -4.2825     9.3284     5.4128 </r>
       <r>    -4.2639     0.2055     5.4167 </r>
       <r>    -4.2453     0.0000     5.4167 </r>
       <r>    -4.2267     0.0095     5.4168 </r>
       <r>    -4.2081     4.2295     5.4955 </r>
       <r>    -4.1895    11.3212     5.7061 </r>
       <r>    -4.1709     0.8133     5.7212 </r>
       <r>    -4.1523     4.8265     5.8110 </r>
       <r>    -4.1337     0.7113     5.8243 </r>
       <r>    -4.1151     3.7617     5.8942 </r>
       <r>    -4.0965    15.2684     6.1783 </r>
       <r>    -4.0779    22.7980     6.6023 </r>
       <r>    -4.0593     5.9353     6.7128 </r>
       <r>    -4.0407     0.0110     6.7130 </r>
       <r>    -4.0221     0.0000     6.7130 </r>
       <r>    -4.0035     0.0000     6.7130 </r>
       <r>    -3.9849     0.1611     6.7160 </r>
       <r>    -3.9663    13.6076     6.9691 </r>
       <r>    -3.9477    19.0394     7.3233 </r>
       <r>    -3.9291     3.3105     7.3848 </r>
       <r>    -3.9105     8.5928     7.5447 </r>
       <r>    -3.8919     3.0674     7.6017 </r>
       <r>    -3.8733     0.4181     7.6095 </r>
       <r>    -3.8547    10.9217     7.8127 </r>
       <r>    -3.8361    16.7328     8.1240 </r>
       <r>    -3.8175     9.3261     8.2974 </r>
       <r>    -3.7989     0.4364     8.3056 </r>
       <r>    -3.7803     0.3207     8.3115 </r>
       <r>    -3.7617     8.7401     8.4741 </r>
       <r>    -3.7431     2.8802     8.5277 </r>
       <r>    -3.7245     0.2223     8.5318 </r>
       <r>    -3.7059     8.2008     8.6844 </r>
       <r>    -3.6873     3.5190     8.7498 </r>
       <r>    -3.6687     0.0091     8.7500 </r>
       <r>    -3.6501     0.0027     8.7500 </r>
       <r>    -3.6314     2.2651     8.7922 </r>
       <r>    -3.6128     9.4131     8.9673 </r>
       <r>    -3.5942    19.5249     9.3305 </r>
       <r>    -3.5756    16.4558     9.6366 </r>
       <r>    -3.5570     0.1360     9.6391 </r>
       <r>    -3.5384     3.9622     9.7128 </r>
       <r>    -3.5198     7.8042     9.8580 </r>
       <r>    -3.5012     1.0773     9.8781 </r>
       <r>    -3.4826    25.3968    10.3505 </r>
       <r>    -3.4640    19.2284    10.7082 </r>
       <r>    -3.4454     2.2462    10.7500 </r>
       <r>    -3.4268     0.0025    10.7500 </r>
       <r>    -3.4082     0.0000    10.7500 </r>
       <r>    -3.3896     0.0000    10.7500 </r>
       <r>    -3.3710     0.0650    10.7512 </r>
       <r>    -3.3524    10.4656    10.9459 </r>
       <r>    -3.3338    13.2055    11.1915 </r>
       <r>    -3.3152     0.1575    11.1945 </r>
       <r>    -3.2966     2.5231    11.2414 </r>
       <r>    -3.2780    19.8905    11.6114 </r>
       <r>    -3.2594     4.3289    11.6919 </r>
       <r>    -3.2408     0.1350    11.6944 </r>
       <r>    -3.2222     0.0003    11.6944 </r>
       <r>    -3.2036     0.8367    11.7100 </r>
       <r>    -3.1850     9.6286    11.8891 </r>
       <r>    -3.1664     2.4166    11.9341 </r>
       <r>    -3.1478    10.1043    12.1220 </r>
       <r>    -3.1292    10.4437    12.3163 </r>
       <r>    -3.1106     2.4051    12.3611 </r>
       <r>    -3.0920     0.0031    12.3611 </r>
       <r>    -3.0734     0.0000    12.3611 </r>
       <r>    -3.0548     0.0000    12.3611 </r>
       <r>    -3.0362     0.0000    12.3611 </r>
       <r>    -3.0176     0.3553    12.3677 </r>
       <r>    -2.9990    15.8122    12.6619 </r>
       <r>    -2.9804    11.4381    12.8746 </r>
       <r>    -2.9618     8.0414    13.0242 </r>
       <r>    -2.9432     1.5076    13.0523 </r>
       <r>    -2.9246    27.7686    13.5688 </r>
       <r>    -2.9060    12.6529    13.8042 </r>
       <r>    -2.8874     0.0737    13.8056 </r>
       <r>    -2.8688     0.0000    13.8056 </r>
       <r>    -2.8502     0.0000    13.8056 </r>
       <r>    -2.8316     0.0000    13.8056 </r>
       <r>    -2.8130     0.0000    13.8056 </r>
       <r>    -2.7944     0.0000    13.8056 </r>
       <r>    -2.7758     0.0000    13.8056 </r>
       <r>    -2.7572     0.0000    13.8056 </r>
       <r>    -2.7386     0.0000    13.8056 </r>
       <r>    -2.7199     0.0000    13.8056 </r>
       <r>    -2.7013     0.0412    13.8063 </r>
       <r>    -2.6827     5.6093    13.9107 </r>
       <r>    -2.6641    12.1098    14.1359 </r>
       <r>    -2.6455    17.1833    14.4556 </r>
       <r>    -2.6269     0.8946    14.4722 </r>
       <r>    -2.6083     0.0002    14.4722 </r>
       <r>    -2.5897     0.0007    14.4722 </r>
       <r>    -2.5711     2.0010    14.5095 </r>
       <r>    -2.5525    19.3691    14.8698 </r>
       <r>    -2.5339     2.5201    14.9166 </r>
       <r>    -2.5153     0.0012    14.9167 </r>
       <r>    -2.4967     0.0000    14.9167 </r>
       <r>    -2.4781     0.0010    14.9167 </r>
       <r>    -2.4595     2.3244    14.9599 </r>
       <r>    -2.4409    19.3894    15.3206 </r>
       <r>    -2.4223     2.2079    15.3617 </r>
       <r>    -2.4037     5.1813    15.4581 </r>
       <r>    -2.3851     6.6537    15.5818 </r>
       <r>    -2.3665     0.0806    15.5833 </r>
       <r>    -2.3479     0.0000    15.5833 </r>
       <r>    -2.3293     0.0000    15.5833 </r>
       <r>    -2.3107     0.0000    15.5833 </r>
       <r>    -2.2921     0.0000    15.5833 </r>
       <r>    -2.2735     0.0000    15.5833 </r>
       <r>    -2.2549     0.0000    15.5833 </r>
       <r>    -2.2363     0.0000    15.5833 </r>
       <r>    -2.2177     0.0068    15.5835 </r>
       <r>    -2.1991     2.0092    15.6208 </r>
       <r>    -2.1805     3.8764    15.6929 </r>
       <r>    -2.1619     0.0806    15.6944 </r>
       <r>    -2.1433     0.0000    15.6944 </r>
       <r>    -2.1247     0.0000    15.6944 </r>
       <r>    -2.1061     0.0000    15.6944 </r>
       <r>    -2.0875     0.0001    15.6944 </r>
       <r>    -2.0689     0.2393    15.6989 </r>
       <r>    -2.0503     2.4188    15.7439 </r>
       <r>    -2.0317     0.8841    15.7603 </r>
       <r>    -2.0131     9.3511    15.9343 </r>
       <r>    -1.9945     2.0372    15.9722 </r>
       <r>    -1.9759     0.0020    15.9722 </r>
       <r>    -1.9573     0.0135    15.9725 </r>
       <r>    -1.9387     3.9983    16.0468 </r>
       <r>    -1.9201     7.7713    16.1914 </r>
       <r>    -1.9015     0.4949    16.2006 </r>
       <r>    -1.8829     4.7467    16.2889 </r>
       <r>    -1.8643     0.8939    16.3055 </r>
       <r>    -1.8457     0.0007    16.3056 </r>
       <r>    -1.8271     0.0001    16.3056 </r>
       <r>    -1.8085     0.2931    16.3110 </r>
       <r>    -1.7898     4.6985    16.3984 </r>
       <r>    -1.7712     0.9805    16.4166 </r>
       <r>    -1.7526     0.0009    16.4167 </r>
       <r>    -1.7340     0.0000    16.4167 </r>
       <r>    -1.7154     0.0000    16.4167 </r>
       <r>    -1.6968     0.0000    16.4167 </r>
       <r>    -1.6782     0.0000    16.4167 </r>
       <r>    -1.6596     0.0000    16.4167 </r>
       <r>    -1.6410     0.0000    16.4167 </r>
       <r>    -1.6224     0.0000    16.4167 </r>
       <r>    -1.6038     0.0000    16.4167 </r>
       <r>    -1.5852     0.0000    16.4167 </r>
       <r>    -1.5666     0.0000    16.4167 </r>
       <r>    -1.5480     0.0000    16.4167 </r>
       <r>    -1.5294     0.0000    16.4167 </r>
       <r>    -1.5108     0.3192    16.4226 </r>
       <r>    -1.4922     8.7340    16.5851 </r>
       <r>    -1.4736     2.8878    16.6388 </r>
       <r>    -1.4550     0.0052    16.6389 </r>
       <r>    -1.4364     0.0000    16.6389 </r>
       <r>    -1.4178     0.0013    16.6389 </r>
       <r>    -1.3992     3.3013    16.7003 </r>
       <r>    -1.3806    41.7886    17.4777 </r>
       <r>    -1.3620    14.5641    17.7486 </r>
       <r>    -1.3434     0.0754    17.7500 </r>
       <r>    -1.3248     0.0031    17.7501 </r>
       <r>    -1.3062     2.3813    17.7944 </r>
       <r>    -1.2876     9.1208    17.9640 </r>
       <r>    -1.2690     0.4410    17.9722 </r>
       <r>    -1.2504     0.1542    17.9751 </r>
       <r>    -1.2318     1.6109    18.0051 </r>
       <r>    -1.2132     0.2258    18.0093 </r>
       <r>    -1.1946     0.0001    18.0093 </r>
       <r>    -1.1760     0.1178    18.0115 </r>
       <r>    -1.1574     7.2689    18.1467 </r>
       <r>    -1.1388     8.3169    18.3014 </r>
       <r>    -1.1202    16.8055    18.6140 </r>
       <r>    -1.1016     4.1394    18.6910 </r>
       <r>    -1.0830     9.6238    18.8700 </r>
       <r>    -1.0644     3.4635    18.9344 </r>
       <r>    -1.0458    28.1690    19.4584 </r>
       <r>    -1.0272    12.9294    19.6990 </r>
       <r>    -1.0086     9.5661    19.8769 </r>
       <r>    -0.9900    15.1072    20.1579 </r>
       <r>    -0.9714    31.9572    20.7524 </r>
       <r>    -0.9528     9.6986    20.9328 </r>
       <r>    -0.9342     4.0950    21.0090 </r>
       <r>    -0.9156     0.0145    21.0093 </r>
       <r>    -0.8970     0.1664    21.0124 </r>
       <r>    -0.8783     8.4725    21.1700 </r>
       <r>    -0.8597    13.4706    21.4205 </r>
       <r>    -0.8411     1.7814    21.4537 </r>
       <r>    -0.8225     0.1396    21.4563 </r>
       <r>    -0.8039    14.7969    21.7315 </r>
       <r>    -0.7853    20.5118    22.1131 </r>
       <r>    -0.7667     0.3917    22.1204 </r>
       <r>    -0.7481     0.9811    22.1386 </r>
       <r>    -0.7295    11.9039    22.3601 </r>
       <r>    -0.7109     3.3890    22.4231 </r>
       <r>    -0.6923     2.4223    22.4682 </r>
       <r>    -0.6737     0.5399    22.4782 </r>
       <r>    -0.6551    15.5044    22.7666 </r>
       <r>    -0.6365    11.6907    22.9841 </r>
       <r>    -0.6179    25.3125    23.4550 </r>
       <r>    -0.5993     6.8861    23.5830 </r>
       <r>    -0.5807     0.0157    23.5833 </r>
       <r>    -0.5621     1.1162    23.6041 </r>
       <r>    -0.5435     9.6956    23.7845 </r>
       <r>    -0.5249     1.1334    23.8055 </r>
       <r>    -0.5063     0.0005    23.8056 </r>
       <r>    -0.4877     0.0010    23.8056 </r>
       <r>    -0.4691     1.5309    23.8341 </r>
       <r>    -0.4505     9.6098    24.0128 </r>
       <r>    -0.4319     0.8041    24.0278 </r>
       <r>    -0.4133     0.0002    24.0278 </r>
       <r>    -0.3947     0.0000    24.0278 </r>
       <r>    -0.3761     0.1227    24.0301 </r>
       <r>    -0.3575     7.3244    24.1663 </r>
       <r>    -0.3389     4.4797    24.2496 </r>
       <r>    -0.3203     0.0193    24.2500 </r>
       <r>    -0.3017     0.0057    24.2501 </r>
       <r>    -0.2831     4.7393    24.3383 </r>
       <r>    -0.2645    33.5917    24.9631 </r>
       <r>    -0.2459    21.1316    25.3562 </r>
       <r>    -0.2273     0.2623    25.3611 </r>
       <r>    -0.2087     0.0000    25.3611 </r>
       <r>    -0.1901     0.0000    25.3611 </r>
       <r>    -0.1715     0.0000    25.3611 </r>
       <r>    -0.1529     0.0000    25.3611 </r>
       <r>    -0.1343     0.0000    25.3611 </r>
[...]
        <r>  0.0060  0.0005  0.0050  0.0031  0.0000  0.0000  0.0000  0.0000  0.0000 </r>
        <r>  0.0060  0.0005  0.0050  0.0031  0.0000  0.0000  0.0000  0.0000  0.0000 </r>
        <r>  0.0060  0.0005  0.0050  0.0031  0.0000  0.0000  0.0000  0.0000  0.0000 </r>
        <r>  0.0060  0.0005  0.0050  0.0031  0.0000  0.0000  0.0000  0.0000  0.0000 </r>
        <r>  0.0060  0.0005  0.0050  0.0031  0.0000  0.0000  0.0000  0.0000  0.0000 </r>
        <r>  0.0060  0.0005  0.0050  0.0031  0.0000  0.0000  0.0000  0.0000  0.0000 </r>
        <r>  0.0060  0.0005  0.0050  0.0031  0.0000  0.0000  0.0000  0.0000  0.0000 </r>
       </set>
       <set comment="band 37">
        <r>  0.0012  0.0016  0.0067  0.0108  0.0000  0.0000  0.0000  0.0000  0.0000 </r>
        <r>  0.0012  0.0015  0.0067  0.0108  0.0000  0.0000  0.0000  0.0000  0.0000 </r>
        <r>  0.0044  0.0058  0.0018  0.0029  0.0000  0.0000  0.0000  0.0000  0.0000 </r>
        <r>  0.0044  0.0058  0.0018  0.0029  0.0000  0.0000  0.0000  0.0000  0.0000 </r>
        <r>  0.0044  0.0058  0.0018  0.0029  0.0000  0.0000  0.0000  0.0000  0.0000 </r>
        <r>  0.0044  0.0058  0.0018  0.0029  0.0000  0.0000  0.0000  0.0000  0.0000 </r>
        <r>  0.0012  0.0016  0.0067  0.0108  0.0000  0.0000  0.0000  0.0000  0.0000 </r>
        <r>  0.0012  0.0016  0.0067  0.0108  0.0000  0.0000  0.0000  0.0000  0.0000 </r>
        <r>  0.0029  0.0039  0.0040  0.0065  0.0000  0.0000  0.0000  0.0000  0.0000 </r>
        <r>  0.0029  0.0039  0.0040  0.0065  0.0000  0.0000  0.0000  0.0000  0.0000 </r>
        <r>  0.0026  0.0035  0.0045  0.0072  0.0000  0.0000  0.0000  0.0000  0.0000 </r>
        <r>  0.0026  0.0035  0.0045  0.0072  0.0000  0.0000  0.0000  0.0000  0.0000 </r>
        <r>  0.0026  0.0035  0.0045  0.0072  0.0000  0.0000  0.0000  0.0000  0.0000 </r>
        <r>  0.0026  0.0035  0.0045  0.0072  0.0000  0.0000  0.0000  0.0000  0.0000 </r>
        <r>  0.0029  0.0039  0.0040  0.0065  0.0000  0.0000  0.0000  0.0000  0.0000 </r>
        <r>  0.0029  0.0039  0.0040  0.0065  0.0000  0.0000  0.0000  0.0000  0.0000 </r>
       </set>
       <set comment="band 38">
        <r>  0.0044  0.0058  0.0018  0.0029  0.0000  0.0000  0.0000  0.0000  0.0000 </r>
        <r>  0.0044  0.0058  0.0018  0.0029  0.0000  0.0000  0.0000  0.0000  0.0000 </r>
        <r>  0.0012  0.0016  0.0067  0.0108  0.0000  0.0000  0.0000  0.0000  0.0000 </r>
        <r>  0.0012  0.0016  0.0067  0.0108  0.0000  0.0000  0.0000  0.0000  0.0000 </r>
        <r>  0.0012  0.0016  0.0067  0.0108  0.0000  0.0000  0.0000  0.0000  0.0000 </r>
        <r>  0.0012  0.0016  0.0067  0.0108  0.0000  0.0000  0.0000  0.0000  0.0000 </r>
        <r>  0.0044  0.0058  0.0018  0.0029  0.0000  0.0000  0.0000  0.0000  0.0000 </r>
        <r>  0.0044  0.0058  0.0018  0.0029  0.0000  0.0000  0.0000  0.0000  0.0000 </r>
        <r>  0.0026  0.0035  0.0045  0.0072  0.0000  0.0000  0.0000  0.0000  0.0000 </r>
        <r>  0.0026  0.0035  0.0045  0.0072  0.0000  0.0000  0.0000  0.0000  0.0000 </r>
        <r>  0.0029  0.0039  0.0040  0.0065  0.0000  0.0000  0.0000  0.0000  0.0000 </r>
        <r>  0.0029  0.0039  0.0040  0.0065  0.0000  0.0000  0.0000  0.0000  0.0000 </r>
        <r>  0.0029  0.0039  0.0040  0.0065  0.0000  0.0000  0.0000  0.0000  0.0000 </r>
        <r>  0.0029  0.0039  0.0040  0.0065  0.0000  0.0000  0.0000  0.0000  0.0000 </r>
        <r>  0.0026  0.0035  0.0045  0.0072  0.0000  0.0000  0.0000  0.0000  0.0000 </r>
        <r>  0.0026  0.0035  0.0045  0.0072  0.0000  0.0000  0.0000  0.0000  0.0000 </r>
       </set>
       <set comment="band 39">
        <r>  0.0020  0.0008  0.0092  0.0035  0.0000  0.0000  0.0000  0.0000  0.0000 </r>
        <r>  0.0046  0.0019  0.0039  0.0015  0.0000  0.0000  0.0000  0.0000  0.0000 </r>
        <r>  0.0046  0.0019  0.0039  0.0015  0.0000  0.0000  0.0000  0.0000  0.0000 </r>
        <r>  0.0020  0.0008  0.0092  0.0035  0.0000  0.0000  0.0000  0.0000  0.0000 </r>
        <r>  0.0020  0.0008  0.0092  0.0035  0.0000  0.0000  0.0000  0.0000  0.0000 </r>
        <r>  0.0046  0.0019  0.0039  0.0015  0.0000  0.0000  0.0000  0.0000  0.0000 </r>
        <r>  0.0046  0.0019  0.0039  0.0015  0.0000  0.0000  0.0000  0.0000  0.0000 </r>
        <r>  0.0020  0.0008  0.0092  0.0035  0.0000  0.0000  0.0000  0.0000  0.0000 </r>
        <r>  0.0015  0.0006  0.0102  0.0039  0.0000  0.0000  0.0000  0.0000  0.0000 </r>
        <r>  0.0051  0.0021  0.0030  0.0011  0.0000  0.0000  0.0000  0.0000  0.0000 </r>
        <r>  0.0051  0.0021  0.0030  0.0011  0.0000  0.0000  0.0000  0.0000  0.0000 </r>
        <r>  0.0015  0.0006  0.0102  0.0039  0.0000  0.0000  0.0000  0.0000  0.0000 </r>
        <r>  0.0015  0.0006  0.0101  0.0039  0.0000  0.0000  0.0000  0.0000  0.0000 </r>
        <r>  0.0051  0.0021  0.0030  0.0011  0.0000  0.0000  0.0000  0.0000  0.0000 </r>
        <r>  0.0051  0.0021  0.0030  0.0011  0.0000  0.0000  0.0000  0.0000  0.0000 </r>
        <r>  0.0015  0.0006  0.0102  0.0039  0.0000  0.0000  0.0000  0.0000  0.0000 </r>
       </set>
       <set comment="band 40">
        <r>  0.0047  0.0019  0.0040  0.0015  0.0000  0.0000  0.0000  0.0000  0.0000 </r>
        <r>  0.0020  0.0008  0.0092  0.0035  0.0000  0.0000  0.0000  0.0000  0.0000 </r>
        <r>  0.0020  0.0008  0.0092  0.0035  0.0000  0.0000  0.0000  0.0000  0.0000 </r>
        <r>  0.0046  0.0019  0.0039  0.0015  0.0000  0.0000  0.0000  0.0000  0.0000 </r>
        <r>  0.0046  0.0019  0.0039  0.0015  0.0000  0.0000  0.0000  0.0000  0.0000 </r>
        <r>  0.0020  0.0008  0.0092  0.0035  0.0000  0.0000  0.0000  0.0000  0.0000 </r>
        <r>  0.0020  0.0008  0.0092  0.0035  0.0000  0.0000  0.0000  0.0000  0.0000 </r>
        <r>  0.0047  0.0019  0.0039  0.0015  0.0000  0.0000  0.0000  0.0000  0.0000 </r>
        <r>  0.0052  0.0021  0.0030  0.0011  0.0000  0.0000  0.0000  0.0000  0.0000 </r>
        <r>  0.0015  0.0006  0.0102  0.0039  0.0000  0.0000  0.0000  0.0000  0.0000 </r>
        <r>  0.0015  0.0006  0.0102  0.0039  0.0000  0.0000  0.0000  0.0000  0.0000 </r>
        <r>  0.0051  0.0021  0.0030  0.0011  0.0000  0.0000  0.0000  0.0000  0.0000 </r>
        <r>  0.0051  0.0020  0.0030  0.0011  0.0000  0.0000  0.0000  0.0000  0.0000 </r>
        <r>  0.0015  0.0006  0.0101  0.0039  0.0000  0.0000  0.0000  0.0000  0.0000 </r>
        <r>  0.0015  0.0006  0.0102  0.0039  0.0000  0.0000  0.0000  0.0000  0.0000 </r>
        <r>  0.0051  0.0021  0.0030  0.0011  0.0000  0.0000  0.0000  0.0000  0.0000 </r>
       </set>
       <set comment="band 41">
        <r>  0.0064  0.0021  0.0103  0.0009  0.0000  0.0000  0.0000  0.0000  0.0000 </r>
        <r>  0.0064  0.0020  0.0103  0.0009  0.0000  0.0000  0.0000  0.0000  0.0000 </r>
        <r>  0.0107  0.0034  0.0061  0.0005  0.0000  0.0000  0.0000  0.0000  0.0000 </r>
        <r>  0.0106  0.0034  0.0062  0.0006  0.0000  0.0000  0.0000  0.0000  0.0000 </r>
        <r>  0.0107  0.0034  0.0062  0.0006  0.0000  0.0000  0.0000  0.0000  0.0000 </r>
        <r>  0.0106  0.0034  0.0062  0.0005  0.0000  0.0000  0.0000  0.0000  0.0000 </r>
        <r>  0.0064  0.0020  0.0103  0.0009  0.0000  0.0000  0.0000  0.0000  0.0000 </r>
        <r>  0.0064  0.0021  0.0103  0.0009  0.0000  0.0000  0.0000  0.0000  0.0000 </r>
        <r>  0.0168  0.0053  0.0003  0.0000  0.0000  0.0000  0.0000  0.0000  0.0000 </r>
        <r>  0.0167  0.0054  0.0003  0.0000  0.0000  0.0000  0.0000  0.0000  0.0000 </r>
        <r>  0.0003  0.0001  0.0162  0.0015  0.0000  0.0000  0.0000  0.0000  0.0000 </r>
        <r>  0.0003  0.0001  0.0161  0.0014  0.0000  0.0000  0.0000  0.0000  0.0000 </r>
        <r>  0.0003  0.0001  0.0162  0.0014  0.0000  0.0000  0.0000  0.0000  0.0000 </r>
        <r>  0.0003  0.0001  0.0162  0.0015  0.0000  0.0000  0.0000  0.0000  0.0000 </r>
        <r>  0.0168  0.0053  0.0003  0.0000  0.0000  0.0000  0.0000  0.0000  0.0000 </r>
        <r>  0.0168  0.0054  0.0003  0.0000  0.0000  0.0000  0.0000  0.0000  0.0000 </r>
       </set>
       <set comment="band 42">
        <r>  0.0107  0.0034  0.0062  0.0006  0.0000  0.0000  0.0000  0.0000  0.0000 </r>
        <r>  0.0107  0.0034  0.0062  0.0006  0.0000  0.0000  0.0000  0.0000  0.0000 </r>
        <r>  0.0065  0.0020  0.0103  0.0009  0.0000  0.0000  0.0000  0.0000  0.0000 </r>
        <r>  0.0064  0.0020  0.0103  0.0009  0.0000  0.0000  0.0000  0.0000  0.0000 </r>
        <r>  0.0064  0.0021  0.0103  0.0009  0.0000  0.0000  0.0000  0.0000  0.0000 </r>
        <r>  0.0065  0.0020  0.0103  0.0009  0.0000  0.0000  0.0000  0.0000  0.0000 </r>
        <r>  0.0107  0.0034  0.0061  0.0005  0.0000  0.0000  0.0000  0.0000  0.0000 </r>
        <r>  0.0107  0.0034  0.0062  0.0006  0.0000  0.0000  0.0000  0.0000  0.0000 </r>
        <r>  0.0003  0.0001  0.0162  0.0015  0.0000  0.0000  0.0000  0.0000  0.0000 </r>
        <r>  0.0003  0.0001  0.0162  0.0015  0.0000  0.0000  0.0000  0.0000  0.0000 </r>
        <r>  0.0168  0.0053  0.0003  0.0000  0.0000  0.0000  0.0000  0.0000  0.0000 </r>
        <r>  0.0169  0.0053  0.0003  0.0000  0.0000  0.0000  0.0000  0.0000  0.0000 </r>
        <r>  0.0169  0.0053  0.0003  0.0000  0.0000  0.0000  0.0000  0.0000  0.0000 </r>
        <r>  0.0169  0.0053  0.0003  0.0000  0.0000  0.0000  0.0000  0.0000  0.0000 </r>
        <r>  0.0003  0.0001  0.0163  0.0015  0.0000  0.0000  0.0000  0.0000  0.0000 </r>
        <r>  0.0003  0.0001  0.0162  0.0015  0.0000  0.0000  0.0000  0.0000  0.0000 </r>
       </set>
       <set comment="band 43">
        <r>  0.0082  0.0006  0.0033  0.0007  0.0000  0.0000  0.0000  0.0000  0.0000 </r>
        <r>  0.0053  0.0004  0.0051  0.0011  0.0000  0.0000  0.0000  0.0000  0.0000 </r>
        <r>  0.0053  0.0004  0.0051  0.0011  0.0000  0.0000  0.0000  0.0000  0.0000 </r>
        <r>  0.0082  0.0006  0.0033  0.0007  0.0000  0.0000  0.0000  0.0000  0.0000 </r>
        <r>  0.0083  0.0006  0.0033  0.0007  0.0000  0.0000  0.0000  0.0000  0.0000 </r>
        <r>  0.0053  0.0004  0.0051  0.0011  0.0000  0.0000  0.0000  0.0000  0.0000 </r>
        <r>  0.0054  0.0004  0.0051  0.0011  0.0000  0.0000  0.0000  0.0000  0.0000 </r>
        <r>  0.0082  0.0006  0.0033  0.0007  0.0000  0.0000  0.0000  0.0000  0.0000 </r>
        <r>  0.0104  0.0008  0.0019  0.0004  0.0000  0.0000  0.0000  0.0000  0.0000 </r>
        <r>  0.0031  0.0002  0.0064  0.0014  0.0000  0.0000  0.0000  0.0000  0.0000 </r>
        <r>  0.0031  0.0002  0.0065  0.0014  0.0000  0.0000  0.0000  0.0000  0.0000 </r>
        <r>  0.0104  0.0008  0.0019  0.0004  0.0000  0.0000  0.0000  0.0000  0.0000 </r>
        <r>  0.0105  0.0008  0.0019  0.0004  0.0000  0.0000  0.0000  0.0000  0.0000 </r>
        <r>  0.0031  0.0002  0.0065  0.0014  0.0000  0.0000  0.0000  0.0000  0.0000 </r>
        <r>  0.0031  0.0002  0.0065  0.0014  0.0000  0.0000  0.0000  0.0000  0.0000 </r>
        <r>  0.0105  0.0008  0.0019  0.0004  0.0000  0.0000  0.0000  0.0000  0.0000 </r>
       </set>
       <set comment="band 44">
        <r>  0.0053  0.0004  0.0051  0.0012  0.0000  0.0000  0.0000  0.0000  0.0000 </r>
        <r>  0.0083  0.0006  0.0033  0.0007  0.0000  0.0000  0.0000  0.0000  0.0000 </r>
        <r>  0.0083  0.0006  0.0033  0.0008  0.0000  0.0000  0.0000  0.0000  0.0000 </r>
        <r>  0.0053  0.0004  0.0051  0.0012  0.0000  0.0000  0.0000  0.0000  0.0000 </r>
        <r>  0.0054  0.0004  0.0051  0.0011  0.0000  0.0000  0.0000  0.0000  0.0000 </r>
        <r>  0.0083  0.0006  0.0033  0.0007  0.0000  0.0000  0.0000  0.0000  0.0000 </r>
        <r>  0.0082  0.0006  0.0033  0.0007  0.0000  0.0000  0.0000  0.0000  0.0000 </r>
        <r>  0.0054  0.0004  0.0051  0.0011  0.0000  0.0000  0.0000  0.0000  0.0000 </r>
        <r>  0.0031  0.0002  0.0065  0.0014  0.0000  0.0000  0.0000  0.0000  0.0000 </r>
        <r>  0.0105  0.0008  0.0019  0.0004  0.0000  0.0000  0.0000  0.0000  0.0000 </r>
        <r>  0.0105  0.0008  0.0019  0.0004  0.0000  0.0000  0.0000  0.0000  0.0000 </r>
        <r>  0.0031  0.0002  0.0065  0.0015  0.0000  0.0000  0.0000  0.0000  0.0000 </r>
        <r>  0.0031  0.0002  0.0065  0.0014  0.0000  0.0000  0.0000  0.0000  0.0000 </r>
        <r>  0.0105  0.0008  0.0019  0.0004  0.0000  0.0000  0.0000  0.0000  0.0000 </r>
        <r>  0.0105  0.0008  0.0019  0.0004  0.0000  0.0000  0.0000  0.0000  0.0000 </r>
        <r>  0.0031  0.0002  0.0065  0.0014  0.0000  0.0000  0.0000  0.0000  0.0000 </r>
       </set>
       <set comment="band 45">
        <r>  0.0015  0.0028  0.0077  0.0020  0.0000  0.0000  0.0000  0.0000  0.0000 </r>
        <r>  0.0020  0.0015  0.0074  0.0021  0.0000  0.0000  0.0000  0.0000  0.0000 </r>
        <r>  0.0020  0.0021  0.0068  0.0021  0.0000  0.0000  0.0000  0.0000  0.0000 </r>
        <r>  0.0026  0.0017  0.0093  0.0042  0.0000  0.0000  0.0000  0.0000  0.0000 </r>
        <r>  0.0013  0.0031  0.0065  0.0022  0.0000  0.0000  0.0000  0.0000  0.0000 </r>
        <r>  0.0012  0.0029  0.0093  0.0043  0.0000  0.0000  0.0000  0.0000  0.0000 </r>
        <r>  0.0031  0.0011  0.0081  0.0032  0.0000  0.0000  0.0000  0.0000  0.0000 </r>
        <r>  0.0031  0.0012  0.0064  0.0016  0.0000  0.0000  0.0000  0.0000  0.0000 </r>
        <r>  0.0021  0.0017  0.0069  0.0022  0.0000  0.0000  0.0000  0.0000  0.0000 </r>
        <r>  0.0019  0.0027  0.0073  0.0036  0.0000  0.0000  0.0000  0.0000  0.0000 </r>
        <r>  0.0020  0.0024  0.0075  0.0030  0.0000  0.0000  0.0000  0.0000  0.0000 </r>
        <r>  0.0018  0.0017  0.0075  0.0024  0.0000  0.0000  0.0000  0.0000  0.0000 </r>
        <r>  0.0026  0.0012  0.0083  0.0027  0.0000  0.0000  0.0000  0.0000  0.0000 </r>
        <r>  0.0027  0.0016  0.0057  0.0014  0.0000  0.0000  0.0000  0.0000  0.0000 </r>
        <r>  0.0020  0.0020  0.0073  0.0032  0.0000  0.0000  0.0000  0.0000  0.0000 </r>
        <r>  0.0008  0.0038  0.0096  0.0042  0.0000  0.0000  0.0000  0.0000  0.0000 </r>
       </set>
       <set comment="band 46">
        <r>  0.0013  0.0024  0.0090  0.0041  0.0000  0.0000  0.0000  0.0000  0.0000 </r>
        <r>  0.0036  0.0013  0.0079  0.0032  0.0000  0.0000  0.0000  0.0000  0.0000 </r>
        <r>  0.0008  0.0039  0.0071  0.0018  0.0000  0.0000  0.0000  0.0000  0.0000 </r>
        <r>  0.0023  0.0017  0.0092  0.0039  0.0000  0.0000  0.0000  0.0000  0.0000 </r>
        <r>  0.0026  0.0007  0.0060  0.0014  0.0000  0.0000  0.0000  0.0000  0.0000 </r>
        <r>  0.0046  0.0003  0.0064  0.0015  0.0000  0.0000  0.0000  0.0000  0.0000 </r>
        <r>  0.0009  0.0039  0.0075  0.0031  0.0000  0.0000  0.0000  0.0000  0.0000 </r>
        <r>  0.0020  0.0023  0.0074  0.0031  0.0000  0.0000  0.0000  0.0000  0.0000 </r>
        <r>  0.0014  0.0032  0.0055  0.0022  0.0000  0.0000  0.0000  0.0000  0.0000 </r>
        <r>  0.0011  0.0038  0.0083  0.0039  0.0000  0.0000  0.0000  0.0000  0.0000 </r>
        <r>  0.0034  0.0007  0.0097  0.0041  0.0000  0.0000  0.0000  0.0000  0.0000 </r>
        <r>  0.0022  0.0020  0.0091  0.0044  0.0000  0.0000  0.0000  0.0000  0.0000 </r>
        <r>  0.0025  0.0016  0.0036  0.0006  0.0000  0.0000  0.0000  0.0000  0.0000 </r>
        <r>  0.0012  0.0028  0.0054  0.0013  0.0000  0.0000  0.0000  0.0000  0.0000 </r>
        <r>  0.0018  0.0021  0.0073  0.0027  0.0000  0.0000  0.0000  0.0000  0.0000 </r>
        <r>  0.0021  0.0020  0.0083  0.0050  0.0000  0.0000  0.0000  0.0000  0.0000 </r>
       </set>
       <set comment="band 47">
        <r>  0.0021  0.0029  0.0015  0.0028  0.0000  0.0000  0.0000  0.0000  0.0000 </r>
        <r>  0.0013  0.0025  0.0066  0.0145  0.0000  0.0000  0.0000  0.0000  0.0000 </r>
        <r>  0.0001  0.0006  0.0018  0.0021  0.0000  0.0000  0.0000  0.0000  0.0000 </r>
        <r>  0.0116  0.0137  0.0010  0.0005  0.0000  0.0000  0.0000  0.0000  0.0000 </r>
        <r>  0.0072  0.0082  0.0011  0.0034  0.0000  0.0000  0.0000  0.0000  0.0000 </r>
        <r>  0.0015  0.0010  0.0024  0.0050  0.0000  0.0000  0.0000  0.0000  0.0000 </r>
        <r>  0.0001  0.0002  0.0059  0.0098  0.0000  0.0000  0.0000  0.0000  0.0000 </r>
        <r>  0.0024  0.0037  0.0008  0.0003  0.0000  0.0000  0.0000  0.0000  0.0000 </r>
        <r>  0.0004  0.0000  0.0055  0.0095  0.0000  0.0000  0.0000  0.0000  0.0000 </r>
        <r>  0.0057  0.0068  0.0045  0.0076  0.0000  0.0000  0.0000  0.0000  0.0000 </r>
        <r>  0.0036  0.0045  0.0001  0.0007  0.0000  0.0000  0.0000  0.0000  0.0000 </r>
        <r>  0.0020  0.0030  0.0022  0.0032  0.0000  0.0000  0.0000  0.0000  0.0000 </r>
        <r>  0.0026  0.0054  0.0017  0.0051  0.0000  0.0000  0.0000  0.0000  0.0000 </r>
        <r>  0.0064  0.0089  0.0000  0.0002  0.0000  0.0000  0.0000  0.0000  0.0000 </r>
        <r>  0.0029  0.0025  0.0033  0.0033  0.0000  0.0000  0.0000  0.0000  0.0000 </r>
        <r>  0.0022  0.0018  0.0038  0.0081  0.0000  0.0000  0.0000  0.0000  0.0000 </r>
       </set>
       <set comment="band 48">
        <r>  0.0109  0.0171  0.0017  0.0010  0.0000  0.0000  0.0000  0.0000  0.0000 </r>
        <r>  0.0013  0.0013  0.0022  0.0066  0.0000  0.0000  0.0000  0.0000  0.0000 </r>
        <r>  0.0002  0.0004  0.0049  0.0186  0.0000  0.0000  0.0000  0.0000  0.0000 </r>
        <r>  0.0059  0.0108  0.0000  0.0024  0.0000  0.0000  0.0000  0.0000  0.0000 </r>
        <r>  0.0008  0.0017  0.0007  0.0029  0.0000  0.0000  0.0000  0.0000  0.0000 </r>
        <r>  0.0038  0.0083  0.0022  0.0036  0.0000  0.0000  0.0000  0.0000  0.0000 </r>
        <r>  0.0012  0.0016  0.0014  0.0045  0.0000  0.0000  0.0000  0.0000  0.0000 </r>
        <r>  0.0029  0.0030  0.0026  0.0062  0.0000  0.0000  0.0000  0.0000  0.0000 </r>
        <r>  0.0068  0.0113  0.0014  0.0049  0.0000  0.0000  0.0000  0.0000  0.0000 </r>
        <r>  0.0008  0.0011  0.0038  0.0084  0.0000  0.0000  0.0000  0.0000  0.0000 </r>
        <r>  0.0041  0.0046  0.0023  0.0077  0.0000  0.0000  0.0000  0.0000  0.0000 </r>
        <r>  0.0066  0.0102  0.0018  0.0038  0.0000  0.0000  0.0000  0.0000  0.0000 </r>
        <r>  0.0020  0.0016  0.0014  0.0107  0.0000  0.0000  0.0000  0.0000  0.0000 </r>
        <r>  0.0027  0.0049  0.0030  0.0066  0.0000  0.0000  0.0000  0.0000  0.0000 </r>
        <r>  0.0041  0.0089  0.0009  0.0020  0.0000  0.0000  0.0000  0.0000  0.0000 </r>
        <r>  0.0010  0.0003  0.0011  0.0021  0.0000  0.0000  0.0000  0.0000  0.0000 </r>
       </set>
      </set>
     </set>
    </set>
   </array>
  </projected>
 </calculation>
 <structure name="finalpos" >
  <crystal>
   <varray name="basis" >
    <v>       0.00000000       5.43581180       5.43581180 </v>
    <v>       5.43581180       0.00000000       5.43581180 </v>
    <v>       5.43581180       5.43581180       0.00000000 </v>
   </varray>
   <i name="volume">    321.23527682 </i>
   <varray name="rec_basis" >
    <v>      -0.09198258       0.09198258       0.09198258 </v>
    <v>       0.09198258      -0.09198258       0.09198258 </v>
    <v>       0.09198258       0.09198258      -0.09198258 </v>
   </varray>
  </crystal>
  <varray name="positions" >
   <v>       0.12503389       0.12512838       0.12544094 </v>
   <v>       0.62503444       0.12512956       0.12544034 </v>
   <v>       0.12503441       0.62512796       0.12544208 </v>
   <v>       0.62503379       0.62512939       0.12544259 </v>
   <v>       0.12503397       0.12512759       0.62544099 </v>
   <v>       0.62503330       0.12512970       0.62544108 </v>
   <v>       0.12503332       0.62512829       0.62544235 </v>
   <v>       0.62503426       0.62512958       0.62544182 </v>
   <v>       0.00003446       0.00012796       0.00044093 </v>
   <v>       0.50003400       0.00012940       0.00044099 </v>
   <v>       0.00003394       0.50012840       0.00044223 </v>
   <v>       0.50003457       0.50012960       0.00044176 </v>
   <v>       0.00003345       0.00012838       0.50044087 </v>
   <v>       0.50003417       0.00012974       0.50044034 </v>
   <v>       0.00003439       0.50012765       0.50044206 </v>
   <v>       0.50003342       0.50012976       0.50044252 </v>
  </varray>
 </structure>
</modeling>
