  16  16   1   0
  0.2007720E+02  0.7687399E-09  0.7687399E-09  0.7687399E-09  0.5000000E-15
   1.0000000000000000E-004
  CAR 
 unknown system                          
     11.52919805     -7.05422054 1000      5.81954035      1.00000000
     -7.054  0.0000E+00  0.0000E+00
     -7.036  0.0000E+00  0.0000E+00
     -7.017  0.0000E+00  0.0000E+00
     -6.998  0.0000E+00  0.0000E+00
     -6.980  0.0000E+00  0.0000E+00
     -6.961  0.0000E+00  0.0000E+00
     -6.943  0.0000E+00  0.0000E+00
     -6.924  0.0000E+00  0.0000E+00
     -6.905  0.0000E+00  0.0000E+00
     -6.887  0.0000E+00  0.0000E+00
     -6.868  0.0000E+00  0.0000E+00
     -6.850  0.0000E+00  0.0000E+00
     -6.831  0.0000E+00  0.0000E+00
     -6.812  0.0000E+00  0.0000E+00
     -6.794  0.0000E+00  0.0000E+00
     -6.775  0.0000E+00  0.0000E+00
     -6.757  0.0000E+00  0.0000E+00
     -6.738  0.0000E+00  0.0000E+00
     -6.719  0.0000E+00  0.0000E+00
     -6.701  0.0000E+00  0.0000E+00
     -6.682  0.0000E+00  0.0000E+00
     -6.664  0.0000E+00  0.0000E+00
     -6.645  0.0000E+00  0.0000E+00
     -6.626  0.0000E+00  0.0000E+00
     -6.608  0.0000E+00  0.0000E+00
     -6.589  0.0000E+00  0.0000E+00
     -6.571  0.0000E+00  0.0000E+00
     -6.552  0.0000E+00  0.0000E+00
     -6.533  0.0000E+00  0.0000E+00
     -6.515  0.0000E+00  0.0000E+00
     -6.496  0.0000E+00  0.0000E+00
     -6.478  0.0000E+00  0.0000E+00
     -6.459  0.0000E+00  0.0000E+00
     -6.440  0.0000E+00  0.0000E+00
     -6.422  0.0000E+00  0.0000E+00
     -6.403  0.0000E+00  0.0000E+00
     -6.385  0.0000E+00  0.0000E+00
     -6.366  0.0000E+00  0.0000E+00
     -6.347  0.0000E+00  0.0000E+00
     -6.329  0.0000E+00  0.0000E+00
     -6.310  0.0000E+00  0.0000E+00
     -6.292  0.0000E+00  0.0000E+00
     -6.273  0.0000E+00  0.0000E+00
     -6.254  0.2903E-12  0.5400E-14
     -6.236  0.2611E-06  0.4856E-08
     -6.217  0.3505E-03  0.6524E-05
     -6.199  0.1989E-02  0.4352E-04
     -6.180  0.1494E-03  0.4630E-04
     -6.161  0.3546E-07  0.4630E-04
     -6.143  0.5755E-05  0.4640E-04
     -6.124  0.4149E-02  0.1236E-03
     -6.106  0.1516E-01  0.4057E-03
     -6.087  0.8853E-02  0.5704E-03
     -6.068  0.6628E-02  0.6937E-03
     -6.050  0.4254E-04  0.6944E-03
     -6.031  0.5105E-09  0.6944E-03
     -6.013  0.2265E-11  0.6944E-03
     -5.994  0.2409E-05  0.6945E-03
     -5.975  0.3781E-02  0.7648E-03
     -5.957  0.2404E-01  0.1212E-02
     -5.938  0.2040E-02  0.1250E-02
     -5.919  0.5678E-06  0.1250E-02
     -5.901  0.1747E-04  0.1250E-02
     -5.882  0.1250E-01  0.1483E-02
     -5.864  0.4541E-01  0.2328E-02
     -5.845  0.1470E-01  0.2601E-02
     -5.826  0.6984E-02  0.2731E-02
     -5.808  0.2596E-04  0.2731E-02
     -5.789  0.1681E-09  0.2731E-02
     -5.771  0.6106E-12  0.2731E-02
     -5.752  0.8241E-06  0.2731E-02
     -5.733  0.1616E-02  0.2762E-02
     -5.715  0.1210E-01  0.2987E-02
     -5.696  0.1217E-02  0.3009E-02
     -5.678  0.4260E-06  0.3009E-02
     -5.659  0.1532E-03  0.3012E-02
     -5.640  0.2573E-01  0.3491E-02
     -5.622  0.3466E-01  0.4135E-02
     -5.603  0.4224E-01  0.4921E-02
     -5.585  0.1665E-01  0.5231E-02
     -5.566  0.3888E-04  0.5231E-02
     -5.547  0.1501E-09  0.5231E-02
     -5.529  0.5212E-08  0.5231E-02
     -5.510  0.2834E-03  0.5237E-02
     -5.492  0.3046E-01  0.5803E-02
     -5.473  0.2876E-01  0.6338E-02
     -5.454  0.2282E-03  0.6343E-02
     -5.436  0.9986E-06  0.6343E-02
     -5.417  0.2193E-02  0.6383E-02
     -5.399  0.4051E-01  0.7137E-02
     -5.380  0.3645E-01  0.7815E-02
     -5.361  0.4857E-03  0.7824E-02
     -5.343  0.1433E-07  0.7824E-02
     -5.324  0.5305E-15  0.7824E-02
     -5.306  0.3538E-12  0.7824E-02
     -5.287  0.7631E-06  0.7824E-02
     -5.268  0.2324E-02  0.7867E-02
     -5.250  0.2417E-01  0.8317E-02
     -5.231  0.3372E-02  0.8380E-02
     -5.213  0.1825E-05  0.8380E-02
     -5.194  0.4209E-04  0.8380E-02
     -5.175  0.2679E-01  0.8879E-02
     -5.157  0.9758E-01  0.1069E-01
     -5.138  0.5192E-01  0.1166E-01
     -5.120  0.1507E-01  0.1194E-01
     -5.101  0.2718E-02  0.1199E-01
     -5.082  0.3012E-05  0.1199E-01
     -5.064  0.5324E-11  0.1199E-01
     -5.045  0.6416E-06  0.1199E-01
     -5.027  0.3154E-02  0.1205E-01
     -5.008  0.4728E-01  0.1293E-01
     -4.989  0.9288E-02  0.1310E-01
     -4.971  0.6217E-03  0.1311E-01
     -4.952  0.3662E-01  0.1379E-01
     -4.934  0.2240E-01  0.1421E-01
     -4.915  0.9257E-02  0.1438E-01
     -4.896  0.4735E-01  0.1526E-01
     -4.878  0.3212E-02  0.1532E-01
     -4.859  0.9083E-06  0.1532E-01
     -4.841  0.1109E-02  0.1534E-01
     -4.822  0.1583E-01  0.1564E-01
     -4.803  0.2973E-02  0.1569E-01
     -4.785  0.2418E-05  0.1569E-01
     -4.766  0.1629E-09  0.1569E-01
     -4.748  0.4034E-04  0.1570E-01
     -4.729  0.1686E-01  0.1601E-01
     -4.710  0.4175E-01  0.1679E-01
     -4.692  0.3742E-01  0.1748E-01
     -4.673  0.8106E-01  0.1899E-01
     -4.655  0.2070E-02  0.1903E-01
     -4.636  0.1295E-06  0.1903E-01
     -4.617  0.3288E-04  0.1903E-01
     -4.599  0.2445E-01  0.1948E-01
     -4.580  0.9075E-01  0.2117E-01
     -4.562  0.4271E-02  0.2125E-01
     -4.543  0.1693E-01  0.2157E-01
     -4.524  0.4158E-01  0.2234E-01
     -4.506  0.1206E-02  0.2236E-01
     -4.487  0.2359E-01  0.2280E-01
     -4.469  0.9136E-01  0.2450E-01
     -4.450  0.4473E-02  0.2458E-01
     -4.431  0.6124E-06  0.2458E-01
     -4.413  0.1128E-12  0.2458E-01
     -4.394  0.0000E+00  0.2458E-01
     -4.376  0.5482E-13  0.2458E-01
     -4.357  0.3007E-06  0.2458E-01
     -4.338  0.2218E-02  0.2462E-01
     -4.320  0.4580E-01  0.2548E-01
     -4.301  0.3871E-01  0.2620E-01
     -4.283  0.4664E-01  0.2706E-01
     -4.264  0.1027E-02  0.2708E-01
     -4.245  0.5832E-07  0.2708E-01
     -4.227  0.4763E-04  0.2708E-01
     -4.208  0.2115E-01  0.2748E-01
     -4.190  0.5661E-01  0.2853E-01
     -4.171  0.4067E-02  0.2861E-01
     -4.152  0.2413E-01  0.2906E-01
     -4.134  0.3556E-02  0.2912E-01
     -4.115  0.1881E-01  0.2947E-01
     -4.096  0.7634E-01  0.3089E-01
     -4.078  0.1140E+00  0.3301E-01
     -4.059  0.2968E-01  0.3356E-01
     -4.041  0.5512E-04  0.3356E-01
     -4.022  0.1664E-09  0.3356E-01
     -4.003  0.2012E-07  0.3356E-01
     -3.985  0.8053E-03  0.3358E-01
     -3.966  0.6804E-01  0.3485E-01
     -3.948  0.9520E-01  0.3662E-01
     -3.929  0.1655E-01  0.3692E-01
     -3.910  0.4296E-01  0.3772E-01
     -3.892  0.1534E-01  0.3801E-01
     -3.873  0.2090E-02  0.3805E-01
     -3.855  0.5461E-01  0.3906E-01
     -3.836  0.8366E-01  0.4062E-01
     -3.817  0.4663E-01  0.4149E-01
     -3.799  0.2182E-02  0.4153E-01
     -3.780  0.1604E-02  0.4156E-01
     -3.762  0.4370E-01  0.4237E-01
     -3.743  0.1440E-01  0.4264E-01
     -3.724  0.1112E-02  0.4266E-01
     -3.706  0.4100E-01  0.4342E-01
     -3.687  0.1760E-01  0.4375E-01
     -3.669  0.4575E-04  0.4375E-01
     -3.650  0.1342E-04  0.4375E-01
     -3.631  0.1133E-01  0.4396E-01
     -3.613  0.4707E-01  0.4484E-01
     -3.594  0.9762E-01  0.4665E-01
     -3.576  0.8228E-01  0.4818E-01
     -3.557  0.6800E-03  0.4820E-01
     -3.538  0.1981E-01  0.4856E-01
     -3.520  0.3902E-01  0.4929E-01
     -3.501  0.5386E-02  0.4939E-01
     -3.483  0.1270E+00  0.5175E-01
     -3.464  0.9614E-01  0.5354E-01
     -3.445  0.1123E-01  0.5375E-01
     -3.427  0.1260E-04  0.5375E-01
     -3.408  0.2218E-10  0.5375E-01
     -3.390  0.3754E-08  0.5375E-01
     -3.371  0.3249E-03  0.5376E-01
     -3.352  0.5233E-01  0.5473E-01
     -3.334  0.6603E-01  0.5596E-01
     -3.315  0.7873E-03  0.5597E-01
     -3.297  0.1262E-01  0.5621E-01
     -3.278  0.9945E-01  0.5806E-01
     -3.259  0.2164E-01  0.5846E-01
     -3.241  0.6752E-03  0.5847E-01
     -3.222  0.1315E-05  0.5847E-01
     -3.204  0.4184E-02  0.5855E-01
     -3.185  0.4814E-01  0.5945E-01
     -3.166  0.1208E-01  0.5967E-01
     -3.148  0.5052E-01  0.6061E-01
     -3.129  0.5222E-01  0.6158E-01
     -3.111  0.1203E-01  0.6181E-01
     -3.092  0.1572E-04  0.6181E-01
     -3.073  0.3216E-10  0.6181E-01
     -3.055  0.6247E-14  0.6181E-01
     -3.036  0.9277E-07  0.6181E-01
     -3.018  0.1776E-02  0.6184E-01
     -2.999  0.7906E-01  0.6331E-01
     -2.980  0.5719E-01  0.6437E-01
     -2.962  0.4021E-01  0.6512E-01
     -2.943  0.7538E-02  0.6526E-01
     -2.925  0.1388E+00  0.6784E-01
     -2.906  0.6326E-01  0.6902E-01
     -2.887  0.3686E-03  0.6903E-01
     -2.869  0.6395E-08  0.6903E-01
     -2.850  0.1592E-15  0.6903E-01
     -2.832  0.0000E+00  0.6903E-01
     -2.813  0.0000E+00  0.6903E-01
     -2.794  0.0000E+00  0.6903E-01
     -2.776  0.0000E+00  0.6903E-01
     -2.757  0.0000E+00  0.6903E-01
     -2.739  0.4974E-16  0.6903E-01
     -2.720  0.2888E-08  0.6903E-01
     -2.701  0.2058E-03  0.6903E-01
     -2.683  0.2805E-01  0.6955E-01
     -2.664  0.6055E-01  0.7068E-01
     -2.646  0.8592E-01  0.7228E-01
     -2.627  0.4473E-02  0.7236E-01
     -2.608  0.9798E-06  0.7236E-01
     -2.590  0.3615E-05  0.7236E-01
     -2.571  0.1001E-01  0.7255E-01
     -2.553  0.9685E-01  0.7435E-01
     -2.534  0.1260E-01  0.7458E-01
     -2.515  0.6204E-05  0.7458E-01
     -2.497  0.7676E-11  0.7458E-01
     -2.478  0.5124E-05  0.7458E-01
     -2.460  0.1162E-01  0.7480E-01
     -2.441  0.9695E-01  0.7660E-01
     -2.422  0.1104E-01  0.7681E-01
     -2.404  0.2591E-01  0.7729E-01
     -2.385  0.3327E-01  0.7791E-01
     -2.367  0.4032E-03  0.7792E-01
     -2.348  0.1009E-07  0.7792E-01
     -2.329  0.3183E-15  0.7792E-01
     -2.311  0.0000E+00  0.7792E-01
     -2.292  0.0000E+00  0.7792E-01
     -2.274  0.0000E+00  0.7792E-01
     -2.255  0.1658E-17  0.7792E-01
     -2.236  0.2003E-09  0.7792E-01
     -2.218  0.3418E-04  0.7792E-01
     -2.199  0.1005E-01  0.7810E-01
     -2.180  0.1938E-01  0.7846E-01
     -2.162  0.4032E-03  0.7847E-01
     -2.143  0.1917E-07  0.7847E-01
     -2.125  0.1170E-14  0.7847E-01
     -2.106  0.1971E-12  0.7847E-01
     -2.087  0.4082E-06  0.7847E-01
     -2.069  0.1197E-02  0.7849E-01
     -2.050  0.1209E-01  0.7872E-01
     -2.032  0.4421E-02  0.7880E-01
     -2.013  0.4676E-01  0.7967E-01
     -1.994  0.1019E-01  0.7986E-01
     -1.976  0.1018E-04  0.7986E-01
     -1.957  0.6730E-04  0.7986E-01
     -1.939  0.1999E-01  0.8023E-01
     -1.920  0.3886E-01  0.8096E-01
     -1.901  0.2475E-02  0.8100E-01
     -1.883  0.2373E-01  0.8144E-01
     -1.864  0.4469E-02  0.8153E-01
     -1.846  0.3649E-05  0.8153E-01
     -1.827  0.2734E-06  0.8153E-01
     -1.808  0.1466E-02  0.8156E-01
     -1.790  0.2349E-01  0.8199E-01
     -1.771  0.4903E-02  0.8208E-01
     -1.753  0.4615E-05  0.8208E-01
     -1.734  0.6604E-11  0.8208E-01
     -1.715  0.0000E+00  0.8208E-01
     -1.697  0.0000E+00  0.8208E-01
     -1.678  0.0000E+00  0.8208E-01
     -1.660  0.0000E+00  0.8208E-01
     -1.641  0.0000E+00  0.8208E-01
     -1.622  0.0000E+00  0.8208E-01
     -1.604  0.0000E+00  0.8208E-01
     -1.585  0.0000E+00  0.8208E-01
     -1.567  0.0000E+00  0.8208E-01
     -1.548  0.1896E-13  0.8208E-01
     -1.529  0.1513E-06  0.8208E-01
     -1.511  0.1596E-02  0.8211E-01
     -1.492  0.4367E-01  0.8293E-01
     -1.474  0.1444E-01  0.8319E-01
     -1.455  0.2593E-04  0.8319E-01
     -1.436  0.7952E-10  0.8319E-01
     -1.418  0.6736E-05  0.8319E-01
     -1.399  0.1651E-01  0.8350E-01
     -1.381  0.2089E+00  0.8739E-01
     -1.362  0.7282E-01  0.8874E-01
     -1.343  0.3771E-03  0.8875E-01
     -1.325  0.1533E-04  0.8875E-01
     -1.306  0.1191E-01  0.8897E-01
     -1.288  0.4560E-01  0.8982E-01
     -1.269  0.2205E-02  0.8986E-01
     -1.250  0.7710E-03  0.8988E-01
     -1.232  0.8054E-02  0.9003E-01
     -1.213  0.1129E-02  0.9005E-01
     -1.195  0.6358E-06  0.9005E-01
     -1.176  0.5890E-03  0.9006E-01
     -1.157  0.3634E-01  0.9073E-01
     -1.139  0.4158E-01  0.9151E-01
     -1.120  0.8403E-01  0.9307E-01
     -1.102  0.2070E-01  0.9345E-01
     -1.083  0.4812E-01  0.9435E-01
     -1.064  0.1732E-01  0.9467E-01
     -1.046  0.1408E+00  0.9729E-01
     -1.027  0.6465E-01  0.9849E-01
     -1.009  0.4783E-01  0.9938E-01
     -0.990  0.7554E-01  0.1008E+00
     -0.971  0.1598E+00  0.1038E+00
     -0.953  0.4849E-01  0.1047E+00
     -0.934  0.2047E-01  0.1050E+00
     -0.916  0.7249E-04  0.1050E+00
     -0.897  0.8320E-03  0.1051E+00
     -0.878  0.4236E-01  0.1058E+00
     -0.860  0.6735E-01  0.1071E+00
     -0.841  0.8907E-02  0.1073E+00
     -0.823  0.6982E-03  0.1073E+00
     -0.804  0.7398E-01  0.1087E+00
     -0.785  0.1026E+00  0.1106E+00
     -0.767  0.1959E-02  0.1106E+00
     -0.748  0.4905E-02  0.1107E+00
     -0.730  0.5952E-01  0.1118E+00
     -0.711  0.1694E-01  0.1121E+00
     -0.692  0.1211E-01  0.1123E+00
     -0.674  0.2699E-02  0.1124E+00
     -0.655  0.7752E-01  0.1138E+00
     -0.637  0.5845E-01  0.1149E+00
     -0.618  0.1266E+00  0.1173E+00
     -0.599  0.3443E-01  0.1179E+00
     -0.581  0.7874E-04  0.1179E+00
     -0.562  0.5581E-02  0.1180E+00
     -0.544  0.4848E-01  0.1189E+00
     -0.525  0.5667E-02  0.1190E+00
     -0.506  0.2415E-05  0.1190E+00
     -0.488  0.4964E-05  0.1190E+00
     -0.469  0.7655E-02  0.1192E+00
     -0.451  0.4805E-01  0.1201E+00
     -0.432  0.4021E-02  0.1201E+00
     -0.413  0.1099E-05  0.1201E+00
     -0.395  0.2250E-07  0.1201E+00
     -0.376  0.6134E-03  0.1202E+00
     -0.357  0.3662E-01  0.1208E+00
     -0.339  0.2240E-01  0.1212E+00
     -0.320  0.9641E-04  0.1212E+00
     -0.302  0.2873E-04  0.1213E+00
     -0.283  0.2370E-01  0.1217E+00
     -0.264  0.1680E+00  0.1248E+00
     -0.246  0.1057E+00  0.1268E+00
     -0.227  0.1311E-02  0.1268E+00
     -0.209  0.3678E-07  0.1268E+00
     -0.190  0.1336E-14  0.1268E+00
     -0.171  0.0000E+00  0.1268E+00
     -0.153  0.0000E+00  0.1268E+00
     -0.134  0.0000E+00  0.1268E+00
     -0.116  0.0000E+00  0.1268E+00
     -0.097  0.0000E+00  0.1268E+00
     -0.078  0.1189E-09  0.1268E+00
     -0.060  0.3396E-04  0.1268E+00
     -0.041  0.1588E-01  0.1271E+00
     -0.023  0.4248E-01  0.1279E+00
     -0.004  0.1342E-02  0.1279E+00
      0.015  0.8477E-02  0.1281E+00
      0.033  0.4770E-01  0.1290E+00
      0.052  0.3631E-02  0.1290E+00
      0.070  0.2569E-01  0.1295E+00
      0.089  0.1290E+00  0.1319E+00
      0.108  0.3490E-01  0.1326E+00
      0.126  0.4657E-01  0.1334E+00
      0.145  0.2652E-02  0.1335E+00
      0.163  0.4405E-06  0.1335E+00
      0.182  0.9940E-13  0.1335E+00
      0.201  0.0000E+00  0.1335E+00
      0.219  0.2172E-15  0.1335E+00
      0.238  0.6231E-08  0.1335E+00
      0.256  0.2253E-03  0.1335E+00
      0.275  0.1710E-01  0.1338E+00
      0.294  0.2530E-01  0.1343E+00
      0.312  0.4501E-01  0.1351E+00
      0.331  0.1960E-02  0.1351E+00
      0.349  0.2318E-06  0.1351E+00
      0.368  0.4131E-08  0.1351E+00
      0.387  0.1498E-03  0.1351E+00
      0.405  0.1138E-01  0.1354E+00
      0.424  0.8335E-02  0.1355E+00
      0.442  0.4703E-04  0.1355E+00
      0.461  0.4847E-02  0.1356E+00
      0.480  0.9220E-01  0.1373E+00
      0.498  0.2239E-01  0.1377E+00
      0.517  0.2602E-04  0.1377E+00
      0.535  0.2265E-08  0.1377E+00
      0.554  0.1781E-03  0.1377E+00
      0.573  0.2686E-01  0.1382E+00
      0.591  0.3234E-01  0.1388E+00
      0.610  0.3589E-03  0.1388E+00
      0.628  0.8103E-08  0.1388E+00
      0.647  0.2255E-15  0.1388E+00
      0.666  0.0000E+00  0.1388E+00
      0.684  0.0000E+00  0.1388E+00
      0.703  0.5065E-12  0.1388E+00
      0.721  0.7342E-06  0.1388E+00
      0.740  0.1539E-02  0.1389E+00
      0.759  0.1214E-01  0.1391E+00
      0.777  0.2547E-01  0.1396E+00
      0.796  0.9094E-01  0.1413E+00
      0.814  0.4302E-02  0.1413E+00
      0.833  0.5639E-06  0.1413E+00
      0.852  0.2809E-04  0.1413E+00
      0.870  0.1513E-01  0.1416E+00
      0.889  0.7347E-01  0.1430E+00
      0.907  0.3060E-01  0.1436E+00
      0.926  0.2380E-03  0.1436E+00
      0.945  0.3769E-08  0.1436E+00
      0.963  0.7295E-16  0.1436E+00
      0.982  0.0000E+00  0.1436E+00
      1.000  0.0000E+00  0.1436E+00
      1.019  0.1132E-11  0.1436E+00
      1.038  0.2047E-05  0.1436E+00
      1.056  0.5279E-02  0.1437E+00
      1.075  0.4846E-01  0.1446E+00
      1.093  0.5986E-02  0.1447E+00
      1.112  0.2747E-05  0.1447E+00
      1.131  0.1818E-11  0.1447E+00
      1.149  0.0000E+00  0.1447E+00
      1.168  0.0000E+00  0.1447E+00
      1.186  0.0000E+00  0.1447E+00
      1.205  0.0000E+00  0.1447E+00
      1.224  0.0000E+00  0.1447E+00
      1.242  0.8289E-17  0.1447E+00
      1.261  0.6930E-09  0.1447E+00
      1.279  0.6876E-04  0.1447E+00
      1.298  0.1363E-01  0.1449E+00
      1.317  0.5996E-01  0.1460E+00
      1.335  0.7247E-01  0.1474E+00
      1.354  0.6097E-01  0.1485E+00
      1.372  0.1955E-02  0.1486E+00
      1.391  0.2221E-06  0.1486E+00
      1.410  0.3524E-13  0.1486E+00
      1.428  0.2186E-07  0.1486E+00
      1.447  0.6048E-03  0.1486E+00
      1.466  0.4055E-01  0.1493E+00
      1.484  0.1130E+00  0.1514E+00
      1.503  0.7022E-01  0.1527E+00
      1.521  0.7304E-01  0.1541E+00
      1.540  0.1276E-02  0.1541E+00
      1.559  0.1046E-01  0.1543E+00
      1.577  0.4658E-01  0.1552E+00
      1.596  0.2676E-02  0.1552E+00
      1.614  0.6910E-03  0.1552E+00
      1.633  0.6406E-01  0.1564E+00
      1.652  0.5434E-01  0.1574E+00
      1.670  0.3714E-03  0.1575E+00
      1.689  0.1409E-02  0.1575E+00
      1.707  0.6069E-01  0.1586E+00
      1.726  0.5630E-01  0.1597E+00
      1.745  0.1068E-02  0.1597E+00
      1.763  0.1707E-01  0.1600E+00
      1.782  0.1648E+00  0.1631E+00
      1.800  0.9430E-01  0.1648E+00
      1.819  0.1067E+00  0.1668E+00
      1.838  0.8780E-01  0.1684E+00
      1.856  0.3013E-01  0.1690E+00
      1.875  0.3834E-01  0.1697E+00
      1.893  0.1826E-01  0.1700E+00
      1.912  0.1577E-03  0.1700E+00
      1.931  0.3939E-04  0.1700E+00
      1.949  0.1713E-01  0.1704E+00
      1.968  0.1052E+00  0.1723E+00
      1.986  0.8555E-01  0.1739E+00
      2.005  0.1155E-02  0.1739E+00
      2.024  0.1947E-02  0.1740E+00
      2.042  0.2398E-01  0.1744E+00
      2.061  0.4422E-02  0.1745E+00
      2.079  0.3763E-01  0.1752E+00
      2.098  0.7104E-01  0.1765E+00
      2.117  0.1035E-01  0.1767E+00
      2.135  0.3177E-01  0.1773E+00
      2.154  0.1161E+00  0.1795E+00
      2.172  0.3124E-01  0.1800E+00
      2.191  0.2867E-01  0.1806E+00
      2.210  0.7955E-01  0.1821E+00
      2.228  0.7043E-01  0.1834E+00
      2.247  0.1583E-01  0.1837E+00
      2.265  0.9275E-01  0.1854E+00
      2.284  0.2867E-01  0.1859E+00
      2.303  0.8534E-01  0.1875E+00
      2.321  0.7908E-01  0.1890E+00
      2.340  0.1244E-01  0.1892E+00
      2.358  0.1692E-04  0.1892E+00
      2.377  0.5184E-10  0.1892E+00
      2.396  0.1335E-04  0.1892E+00
      2.414  0.1725E-01  0.1895E+00
      2.433  0.9525E-01  0.1913E+00
      2.451  0.6944E-02  0.1914E+00
      2.470  0.1595E-05  0.1914E+00
      2.489  0.5596E-03  0.1914E+00
      2.507  0.6072E-01  0.1926E+00
      2.526  0.5772E-01  0.1936E+00
      2.544  0.1105E-02  0.1937E+00
      2.563  0.3953E-01  0.1944E+00
      2.582  0.1058E+00  0.1964E+00
      2.600  0.3656E-01  0.1971E+00
      2.619  0.6073E-01  0.1982E+00
      2.637  0.1082E+00  0.2002E+00
      2.656  0.5648E-01  0.2012E+00
      2.675  0.1495E-01  0.2015E+00
      2.693  0.4838E-01  0.2024E+00
      2.712  0.6593E-02  0.2025E+00
      2.730  0.4305E-02  0.2026E+00
      2.749  0.9195E-01  0.2043E+00
      2.768  0.9438E-01  0.2061E+00
      2.786  0.4841E-01  0.2070E+00
      2.805  0.4406E-01  0.2078E+00
      2.823  0.9694E-01  0.2096E+00
      2.842  0.9082E-01  0.2113E+00
      2.861  0.3964E-01  0.2120E+00
      2.879  0.8510E-01  0.2136E+00
      2.898  0.4898E-01  0.2145E+00
      2.916  0.2727E-01  0.2150E+00
      2.935  0.1348E-03  0.2150E+00
      2.954  0.1802E-01  0.2154E+00
      2.972  0.1615E+00  0.2184E+00
      2.991  0.6006E-01  0.2195E+00
      3.009  0.2333E-01  0.2199E+00
      3.028  0.4527E-01  0.2208E+00
      3.047  0.2028E-01  0.2212E+00
      3.065  0.8758E-04  0.2212E+00
      3.084  0.8642E-02  0.2213E+00
      3.102  0.1012E+00  0.2232E+00
      3.121  0.2281E+00  0.2274E+00
      3.140  0.7749E-01  0.2289E+00
      3.158  0.3304E-01  0.2295E+00
      3.177  0.7313E-01  0.2309E+00
      3.195  0.1346E+00  0.2334E+00
      3.214  0.3059E-01  0.2339E+00
      3.233  0.1170E-03  0.2339E+00
      3.251  0.9850E-09  0.2339E+00
      3.270  0.3368E-06  0.2339E+00
      3.289  0.3758E-02  0.2340E+00
      3.307  0.1298E+00  0.2364E+00
      3.326  0.1939E+00  0.2400E+00
      3.344  0.1053E+00  0.2420E+00
      3.363  0.5216E-01  0.2430E+00
      3.382  0.3166E-01  0.2435E+00
      3.400  0.4962E-01  0.2445E+00
      3.419  0.4803E-01  0.2454E+00
      3.437  0.1358E-01  0.2456E+00
      3.456  0.4651E-01  0.2465E+00
      3.475  0.2638E-02  0.2465E+00
      3.493  0.2956E-02  0.2466E+00
      3.512  0.4702E-01  0.2475E+00
      3.530  0.1113E-01  0.2477E+00
      3.549  0.4283E-01  0.2485E+00
      3.568  0.5361E-01  0.2495E+00
      3.586  0.8315E-01  0.2510E+00
      3.605  0.1049E+00  0.2530E+00
      3.623  0.1649E+00  0.2560E+00
      3.642  0.4737E-01  0.2569E+00
      3.661  0.2014E-01  0.2573E+00
      3.679  0.4650E-01  0.2581E+00
      3.698  0.2647E-02  0.2582E+00
      3.716  0.1125E-01  0.2584E+00
      3.735  0.5918E-01  0.2595E+00
      3.754  0.5127E-01  0.2605E+00
      3.772  0.6131E-01  0.2616E+00
      3.791  0.6982E-01  0.2629E+00
      3.809  0.3157E-02  0.2630E+00
      3.828  0.8855E-01  0.2646E+00
      3.847  0.8863E-01  0.2663E+00
      3.865  0.4145E-01  0.2670E+00
      3.884  0.4984E-01  0.2680E+00
      3.902  0.4869E-01  0.2689E+00
      3.921  0.3974E-01  0.2696E+00
      3.940  0.2895E-01  0.2701E+00
      3.958  0.8746E-02  0.2703E+00
      3.977  0.7989E-01  0.2718E+00
      3.995  0.3792E-01  0.2725E+00
      4.014  0.4867E-01  0.2734E+00
      4.033  0.3345E-01  0.2740E+00
      4.051  0.5072E-01  0.2750E+00
      4.070  0.3874E-01  0.2757E+00
      4.088  0.2800E-01  0.2762E+00
      4.107  0.1616E+00  0.2792E+00
      4.126  0.8940E-01  0.2809E+00
      4.144  0.2089E-01  0.2813E+00
      4.163  0.5457E-01  0.2823E+00
      4.181  0.9076E-01  0.2840E+00
      4.200  0.9985E-01  0.2858E+00
      4.219  0.9905E-01  0.2877E+00
      4.237  0.4255E-01  0.2885E+00
      4.256  0.9791E-03  0.2885E+00
      4.274  0.5625E-07  0.2885E+00
      4.293  0.4417E-14  0.2885E+00
      4.312  0.8183E-08  0.2885E+00
      4.330  0.3634E-03  0.2885E+00
      4.349  0.3826E-01  0.2892E+00
      4.367  0.7721E-01  0.2906E+00
      4.386  0.5038E-01  0.2916E+00
      4.405  0.1299E-01  0.2918E+00
      4.423  0.9738E-02  0.2920E+00
      4.442  0.1101E+00  0.2940E+00
      4.460  0.1286E+00  0.2964E+00
      4.479  0.1017E+00  0.2983E+00
      4.498  0.3775E-01  0.2990E+00
      4.516  0.6465E-02  0.2991E+00
      4.535  0.4848E-01  0.3000E+00
      4.553  0.1711E-01  0.3004E+00
      4.572  0.3630E-01  0.3010E+00
      4.591  0.1655E-02  0.3011E+00
      4.609  0.1854E-01  0.3014E+00
      4.628  0.2130E-01  0.3018E+00
      4.646  0.3285E-01  0.3024E+00
      4.665  0.2655E-01  0.3029E+00
      4.684  0.1709E-03  0.3029E+00
      4.702  0.2059E-08  0.3029E+00
      4.721  0.4160E-08  0.3029E+00
      4.739  0.2127E-03  0.3029E+00
      4.758  0.2972E-01  0.3035E+00
      4.777  0.1429E+00  0.3061E+00
      4.795  0.4601E-01  0.3070E+00
      4.814  0.4985E-02  0.3071E+00
      4.832  0.8604E-01  0.3087E+00
      4.851  0.2851E-01  0.3092E+00
      4.870  0.7518E-03  0.3092E+00
      4.888  0.2580E-01  0.3097E+00
      4.907  0.2271E-01  0.3101E+00
      4.925  0.5940E-03  0.3101E+00
      4.944  0.1032E-02  0.3102E+00
      4.963  0.4063E-01  0.3109E+00
      4.981  0.1842E-01  0.3113E+00
      5.000  0.2431E-01  0.3117E+00
      5.018  0.1510E-01  0.3120E+00
      5.037  0.1594E-02  0.3120E+00
      5.056  0.4573E-01  0.3129E+00
      5.074  0.4584E-01  0.3137E+00
      5.093  0.4040E-01  0.3145E+00
      5.112  0.8966E-03  0.3145E+00
      5.130  0.9244E-04  0.3145E+00
      5.149  0.2210E-01  0.3149E+00
      5.167  0.3690E-01  0.3156E+00
      5.186  0.2720E-02  0.3156E+00
      5.205  0.2407E-01  0.3161E+00
      5.223  0.3710E-02  0.3162E+00
      5.242  0.2300E-05  0.3162E+00
      5.260  0.2636E-11  0.3162E+00
      5.279  0.1102E-05  0.3162E+00
      5.298  0.3209E-02  0.3162E+00
      5.316  0.3516E-01  0.3169E+00
      5.335  0.2859E-01  0.3174E+00
      5.353  0.2720E-02  0.3175E+00
      5.372  0.1104E-05  0.3175E+00
      5.391  0.3707E-03  0.3175E+00
      5.409  0.3260E-01  0.3181E+00
      5.428  0.2659E-01  0.3186E+00
      5.446  0.1720E-03  0.3186E+00
      5.465  0.2082E-08  0.3186E+00
      5.484  0.2653E-16  0.3186E+00
      5.502  0.0000E+00  0.3186E+00
      5.521  0.0000E+00  0.3186E+00
      5.539  0.0000E+00  0.3186E+00
      5.558  0.4421E-17  0.3186E+00
      5.577  0.5099E-09  0.3186E+00
      5.595  0.6569E-04  0.3186E+00
      5.614  0.1503E-01  0.3188E+00
      5.632  0.2568E-01  0.3193E+00
      5.651  0.2373E-01  0.3198E+00
      5.670  0.5176E-02  0.3199E+00
      5.688  0.5307E-05  0.3199E+00
      5.707  0.8330E-11  0.3199E+00
      5.725  0.1405E-08  0.3199E+00
      5.744  0.5336E-04  0.3199E+00
      5.763  0.4216E-02  0.3199E+00
      5.781  0.3179E-02  0.3200E+00
      5.800  0.1840E-04  0.3200E+00
      5.818  0.1962E-09  0.3200E+00
      5.837  0.2487E-17  0.3200E+00
      5.856  0.0000E+00  0.3200E+00
      5.874  0.0000E+00  0.3200E+00
      5.893  0.0000E+00  0.3200E+00
      5.911  0.0000E+00  0.3200E+00
      5.930  0.0000E+00  0.3200E+00
      5.949  0.0000E+00  0.3200E+00
      5.967  0.0000E+00  0.3200E+00
      5.986  0.0000E+00  0.3200E+00
      6.004  0.0000E+00  0.3200E+00
      6.023  0.0000E+00  0.3200E+00
      6.042  0.0000E+00  0.3200E+00
      6.060  0.0000E+00  0.3200E+00
      6.079  0.0000E+00  0.3200E+00
      6.097  0.0000E+00  0.3200E+00
      6.116  0.0000E+00  0.3200E+00
      6.135  0.0000E+00  0.3200E+00
      6.153  0.0000E+00  0.3200E+00
      6.172  0.3777E-14  0.3200E+00
      6.190  0.3262E-07  0.3200E+00
      6.209  0.3713E-03  0.3200E+00
      6.228  0.1080E-01  0.3202E+00
      6.246  0.3755E-02  0.3203E+00
      6.265  0.7240E-05  0.3203E+00
      6.283  0.2263E-10  0.3203E+00
      6.302  0.1346E-15  0.3203E+00
      6.321  0.3600E-08  0.3203E+00
      6.339  0.1216E-03  0.3203E+00
      6.358  0.8693E-02  0.3204E+00
      6.376  0.7744E-02  0.3206E+00
      6.395  0.1213E-01  0.3208E+00
      6.414  0.8658E-02  0.3210E+00
      6.432  0.4812E-01  0.3219E+00
      6.451  0.4135E-02  0.3219E+00
      6.469  0.1171E-05  0.3219E+00
      6.488  0.4640E-12  0.3219E+00
      6.507  0.2920E-09  0.3219E+00
      6.525  0.5705E-04  0.3219E+00
      6.544  0.1894E-01  0.3223E+00
      6.562  0.3992E-01  0.3230E+00
      6.581  0.1520E-01  0.3233E+00
      6.600  0.1533E-01  0.3236E+00
      6.618  0.1453E-03  0.3236E+00
      6.637  0.2730E-08  0.3236E+00
      6.655  0.6300E-16  0.3236E+00
      6.674  0.1790E-09  0.3236E+00
      6.693  0.4306E-04  0.3236E+00
      6.711  0.1724E-01  0.3239E+00
      6.730  0.4132E-01  0.3247E+00
      6.748  0.1134E-02  0.3247E+00
      6.767  0.1761E-06  0.3247E+00
      6.786  0.6357E-03  0.3247E+00
      6.804  0.1179E-01  0.3250E+00
      6.823  0.1245E-01  0.3252E+00
      6.841  0.4970E-02  0.3253E+00
      6.860  0.8921E-04  0.3253E+00
      6.879  0.3220E-01  0.3259E+00
      6.897  0.1289E+00  0.3283E+00
      6.916  0.1795E-01  0.3286E+00
      6.934  0.2786E-04  0.3286E+00
      6.953  0.2502E-05  0.3286E+00
      6.972  0.5762E-02  0.3287E+00
      6.990  0.5821E-01  0.3298E+00
      7.009  0.5252E-01  0.3308E+00
      7.028  0.2962E-02  0.3308E+00
      7.046  0.5550E-03  0.3308E+00
      7.065  0.3582E-01  0.3315E+00
      7.083  0.2693E-01  0.3320E+00
      7.102  0.4792E-01  0.3329E+00
      7.121  0.8229E-02  0.3331E+00
      7.139  0.6023E-05  0.3331E+00
      7.158  0.1839E-02  0.3331E+00
      7.176  0.1019E+00  0.3350E+00
      7.195  0.7474E-01  0.3364E+00
      7.214  0.5900E-02  0.3365E+00
      7.232  0.3082E-01  0.3371E+00
      7.251  0.3766E-02  0.3371E+00
      7.269  0.4634E-02  0.3372E+00
      7.288  0.1470E-01  0.3375E+00
      7.307  0.5694E-03  0.3375E+00
      7.325  0.1025E-06  0.3375E+00
      7.344  0.8690E-03  0.3375E+00
      7.362  0.3936E-01  0.3382E+00
      7.381  0.4070E-01  0.3390E+00
      7.400  0.1667E+00  0.3421E+00
      7.418  0.1115E+00  0.3442E+00
      7.437  0.1724E-01  0.3445E+00
      7.455  0.1702E-01  0.3448E+00
      7.474  0.4287E-01  0.3456E+00
      7.493  0.1683E-01  0.3459E+00
      7.511  0.2530E-01  0.3464E+00
      7.530  0.3660E-01  0.3471E+00
      7.548  0.8560E-01  0.3487E+00
      7.567  0.3151E-01  0.3493E+00
      7.586  0.6638E-04  0.3493E+00
      7.604  0.2287E-07  0.3493E+00
      7.623  0.4561E-03  0.3493E+00
      7.641  0.3638E-01  0.3499E+00
      7.660  0.3747E-01  0.3506E+00
      7.679  0.2389E-01  0.3511E+00
      7.697  0.8882E-01  0.3527E+00
      7.716  0.6174E-01  0.3539E+00
      7.734  0.5197E-01  0.3549E+00
      7.753  0.3704E-01  0.3555E+00
      7.772  0.4869E-01  0.3564E+00
      7.790  0.2067E-01  0.3568E+00
      7.809  0.1974E+00  0.3605E+00
      7.827  0.8463E-01  0.3621E+00
      7.846  0.4046E-02  0.3622E+00
      7.865  0.4234E-01  0.3629E+00
      7.883  0.1734E-01  0.3633E+00
      7.902  0.4540E-01  0.3641E+00
      7.920  0.1032E+00  0.3660E+00
      7.939  0.2923E-01  0.3666E+00
      7.958  0.6955E-04  0.3666E+00
      7.976  0.1241E-01  0.3668E+00
      7.995  0.5781E-01  0.3679E+00
      8.013  0.5166E-01  0.3688E+00
      8.032  0.5374E-01  0.3698E+00
      8.051  0.1361E+00  0.3724E+00
      8.069  0.2175E-01  0.3728E+00
      8.088  0.1885E-04  0.3728E+00
      8.106  0.3495E-03  0.3728E+00
      8.125  0.7899E-01  0.3743E+00
      8.144  0.1824E+00  0.3776E+00
      8.162  0.7057E-02  0.3778E+00
      8.181  0.1367E-03  0.3778E+00
      8.199  0.2639E-01  0.3783E+00
      8.218  0.5796E-01  0.3793E+00
      8.237  0.5112E-02  0.3794E+00
      8.255  0.2967E-03  0.3794E+00
      8.274  0.3311E-01  0.3801E+00
      8.292  0.1197E+00  0.3823E+00