 vasp.6.3.0 20Jan22 (build Feb 21 2022 11:18:28) complex                         
 executed on       CrayXC_GCC_OMP date 2023.10.04  23:05:30
 running  128 mpi-ranks, with    1 threads/rank
 distrk:  each k-point on  128 cores,    1 groups
 distr:  one band on NCORE=  16 cores,    8 groups


--------------------------------------------------------------------------------------------------------


 INCAR:
   NWRITE = 2        (Medium-level output)   
   ISTART = 1        (Read existing wavefunction
   INIWAV = 1        (Random initial wavefunction
   ICORELEVEL = 1    (Print core levels)
   LPLANE = TRUE (Real space distribution
   NCORE = 16     (how many cores share the work on an individual orbital)
   PREC = Accurate  (Precision level)
   LREAL = .FALSE. (Accurate forces
   ALGO = FAST      (SCF minimisation algorithm
   ENMAX = 600.00 eV (Plane-wave cutoff) 
   NELM = 500     (Max SCF steps)   
   NELMIN = 5        (Min SCF steps)
   EDIFF = 1E-08     (SCF energy convergence
   ISPIN = 1        (Closed shell DFT)
   GGA = PS     (PBEsol exchange-correlation)
   ADDGRID = TRUE  (Increase grid
   EDIFFG = -1E-07    (Ionic convergence
   NSW = 200         (Max ionic steps
   NBLOCK = 1     (Update XDATCAR, DOSCAR every NBLOCK steps) 
   IBRION = 2     (Algorithm: 0-MD
   ISIF = 2     (Stress/relaxation: 2-Ions, 3-Shape/Ions/V, 7-Vol)
   ISYM = 2     (Symmetry: 0\=none
   2 = GGA
   3 = hybrids) 
   ISMEAR = 0     (Gaussian smearing
   SIGMA = 0.01  (Smearing value in eV
   LORBIT = 11     (PAW radii for projected DOS)
   NEDOS = 1000    (DOSCAR points)
   LMAXMIX = 4       (Mixing cut-off

 POTCAR:    PAW_PBE Si 05Jan2001                  
 POTCAR:    PAW_PBE Si 05Jan2001                  
   VRHFIN =Si: s2p2                                                                                 
   LEXCH  = PE                                                                                      
   EATOM  =   103.0669 eV,    7.5752 Ry                                                             
                                                                                                    
   TITEL  = PAW_PBE Si 05Jan2001                                                                    
   LULTRA =        F    use ultrasoft PP ?                                                          
   IUNSCR =        1    unscreen: 0-lin 1-nonlin 2-no                                               
   RPACOR =    1.500    partial core radius                                                         
   POMASS =   28.085; ZVAL   =    4.000    mass and valenz                                          
   RCORE  =    1.900    outmost cutoff radius                                                       
   RWIGS  =    2.480; RWIGS  =    1.312    wigner-seitz radius (au A)                               
   ENMAX  =  245.345; ENMIN  =  184.009 eV                                                          
   ICORE  =        2    local potential                                                             
   LCOR   =        T    correct aug charges                                                         
   LPAW   =        T    paw PP                                                                      
   EAUG   =  322.069                                                                                
   DEXC   =    0.000                                                                                
   RMAX   =    1.950    core radius for proj-oper                                                   
   RAUG   =    1.300    factor for augmentation sphere                                              
   RDEP   =    1.993    radius for radial grids                                                     
   RDEPT  =    1.837    core radius for aug-charge                                                  
                                                                                                    
   Atomic configuration                                                                             
    6 entries                                                                                       
     n  l   j            E        occ.                                                              
     1  0  0.50     -1785.8828   2.0000                                                             
     2  0  0.50      -139.4969   2.0000                                                             
     2  1  1.50       -95.5546   6.0000                                                             
     3  0  0.50       -10.8127   2.0000                                                             
     3  1  0.50        -4.0811   2.0000                                                             
     3  2  1.50        -4.0817   0.0000                                                             
   Description                                                                                      
     l       E           TYP  RCUT    TYP  RCUT                                                     
     0    -10.8127223     23  1.900                                                                 
     0     -7.6451159     23  1.900                                                                 
     1     -4.0811372     23  1.900                                                                 
     1      2.4879257     23  1.900                                                                 
     2     -4.0817478      7  1.900                                                                 
  local pseudopotential read in
  partial core-charges read in
  partial kinetic energy density read in
  atomic valenz-charges read in
  non local Contribution for L=           0  read in
    real space projection operators read in
  non local Contribution for L=           0  read in
    real space projection operators read in
  non local Contribution for L=           1  read in
    real space projection operators read in
  non local Contribution for L=           1  read in
    real space projection operators read in
    PAW grid and wavefunctions read in

   number of l-projection  operators is LMAX  =           4
   number of lm-projection operators is LMMAX =           8

 -----------------------------------------------------------------------------
|                                                                             |
|               ----> ADVICE to this user running VASP <----                  |
|                                                                             |
|     You enforced a specific xc type in the INCAR file but a different       |
|     type was found in the POTCAR file.                                      |
|     I HOPE YOU KNOW WHAT YOU ARE DOING!                                     |
|                                                                             |
 -----------------------------------------------------------------------------

  PAW_PBE Si 05Jan2001                  :
 energy of atom  1       EATOM= -103.0669
 kinetic energy error for atom=    0.0003 (will be added to EATOM!!)


 POSCAR: generated by phonopy
  positions in direct lattice
  velocities in cartesian coordinates
 exchange correlation table for  LEXCH =       14
   RHO(1)=    0.500       N(1)  =     2000
   RHO(2)=  100.500       N(2)  =     4000



--------------------------------------------------------------------------------------------------------


 ion  position               nearest neighbor table
   1  0.125  0.125  0.125-   9 2.35  13 2.35  11 2.35  10 2.35
   2  0.625  0.125  0.125-  10 2.35  14 2.35   9 2.35  12 2.35
   3  0.125  0.625  0.125-  11 2.35  15 2.35   9 2.35  12 2.35
   4  0.625  0.625  0.125-  12 2.35  16 2.35  10 2.35  11 2.35
   5  0.125  0.125  0.625-  13 2.35   9 2.35  15 2.35  14 2.35
   6  0.625  0.125  0.625-  14 2.35  10 2.35  16 2.35  13 2.35
   7  0.125  0.625  0.625-  15 2.35  11 2.35  13 2.35  16 2.35
   8  0.625  0.625  0.625-  12 2.35  16 2.35  15 2.35  14 2.35
   9  0.000  0.000  0.000-   1 2.35   5 2.35   3 2.35   2 2.35
  10  0.500  0.000  0.000-   6 2.35   2 2.35   4 2.35   1 2.35
  11  0.000  0.500  0.000-   7 2.35   3 2.35   1 2.35   4 2.35
  12  0.500  0.500  0.000-   4 2.35   8 2.35   2 2.35   3 2.35
  13  0.000  0.000  0.500-   5 2.35   1 2.35   7 2.35   6 2.35
  14  0.500  0.000  0.500-   6 2.35   2 2.35   8 2.35   5 2.35
  15  0.000  0.500  0.500-   7 2.35   3 2.35   5 2.35   8 2.35
  16  0.500  0.500  0.500-   4 2.35   8 2.35   6 2.35   7 2.35

  LATTYP: Found a face centered cubic cell.
 ALAT       =    10.8716235991
  
  Lattice vectors:
  
 A1 = (   0.0000000000,   5.4358117995,   5.4358117995)
 A2 = (   5.4358117995,   0.0000000000,   5.4358117995)
 A3 = (   5.4358117995,   5.4358117995,   0.0000000000)


Analysis of symmetry for initial positions (statically):
=====================================================================
 Subroutine PRICEL returns following result:
 
  LATTYP: Found a face centered cubic cell.
 ALAT       =     5.4358236113
  
  Lattice vectors:
  
 A1 = (   0.0000081777,   2.7179037803,   2.7179112549)
 A2 = (   2.7179153524,   0.0000070936,   2.7179082588)
 A3 = (   2.7179078368,   2.7179055964,   0.0000022404)
 
   8 primitive cells build up your supercell.
 

 Routine SETGRP: Setting up the symmetry group for a 
 face centered cubic supercell.


 Subroutine GETGRP returns: Found 48 space group operations
 (whereof  1 operations were pure point group operations)
 out of a pool of 48 trial point group operations.


The static configuration has the point symmetry C_1 .
 The point group associated with its full space group is O_h .


Analysis of symmetry for dynamics (positions and initial velocities):
=====================================================================
 Subroutine PRICEL returns following result:
 
  LATTYP: Found a face centered cubic cell.
 ALAT       =     5.4358236113
  
  Lattice vectors:
  
 A1 = (   0.0000081777,   2.7179037803,   2.7179112549)
 A2 = (   2.7179153524,   0.0000070936,   2.7179082588)
 A3 = (   2.7179078368,   2.7179055964,   0.0000022404)
 
   8 primitive cells build up your supercell.
 

 Routine SETGRP: Setting up the symmetry group for a 
 face centered cubic supercell.


 Subroutine GETGRP returns: Found 48 space group operations
 (whereof  1 operations were pure point group operations)
 out of a pool of 48 trial point group operations.


The dynamic configuration has the point symmetry C_1 .
 The point group associated with its full space group is O_h .


 Subroutine INISYM returns: Found 48 space group operations
 (whereof  1 operations are pure point group operations),
 and found     8 'primitive' translations


----------------------------------------------------------------------------------------

                                     Primitive cell                                     

  volume of cell :      40.1544

  direct lattice vectors                    reciprocal lattice vectors
     0.000008178  2.717903780  2.717911255    -0.183965330  0.183965330  0.183965330
     2.717915352  0.000007094  2.717908259     0.183965381 -0.183965684  0.183964625
     2.717907837  2.717905596  0.000002240     0.183964726  0.183965639 -0.183965687

  length of vectors
     3.843701673  3.843707737  3.843700540     0.318637298  0.318637125  0.318637334

  position of ions in fractional coordinates (direct lattice)
     0.250068009  0.250255607  0.250881222
     0.000068912  0.000255926  0.000881855

  ion indices of the primitive-cell ions
   primitive index   ion index
                 1           1
                 2           9

----------------------------------------------------------------------------------------



 KPOINTS: Regular k-point mesh                    

Automatic generation of k-mesh.
 Grid dimensions read from file:
 generate k-points for:    6    6    6

 Generating k-lattice:

  Cartesian coordinates                     Fractional coordinates (reciprocal lattice)
    -0.015330430  0.015330430  0.015330430     0.166666667  0.000000000 -0.000000000
     0.015330430 -0.015330430  0.015330430     0.000000000  0.166666667  0.000000000
     0.015330430  0.015330430 -0.015330430    -0.000000000 -0.000000000  0.166666667

  Length of vectors
     0.026553084  0.026553084  0.026553084

  Shift w.r.t. Gamma in fractional coordinates (k-lattice)
     0.000000000  0.000000000  0.000000000

 
 Subroutine IBZKPT returns following result:
 ===========================================
 
 Found     16 irreducible k-points:
 
 Following reciprocal coordinates:
            Coordinates               Weight
  0.000000  0.000000  0.000000      1.000000
  0.166667  0.000000  0.000000      8.000000
  0.333333  0.000000  0.000000      8.000000
  0.500000  0.000000  0.000000      4.000000
  0.166667  0.166667  0.000000      6.000000
  0.333333  0.166667  0.000000     24.000000
  0.500000  0.166667  0.000000     24.000000
 -0.333333  0.166667  0.000000     24.000000
 -0.166667  0.166667  0.000000     12.000000
  0.333333  0.333333  0.000000      6.000000
  0.500000  0.333333  0.000000     24.000000
 -0.333333  0.333333  0.000000     12.000000
  0.500000  0.500000  0.000000      3.000000
  0.500000  0.333333  0.166667     24.000000
 -0.333333  0.333333  0.166667     24.000000
 -0.333333  0.500000  0.166667     12.000000
 
 Following cartesian coordinates:
            Coordinates               Weight
  0.000000  0.000000  0.000000      1.000000
 -0.015330  0.015330  0.015330      8.000000
 -0.030661  0.030661  0.030661      8.000000
 -0.045991  0.045991  0.045991      4.000000
  0.000000  0.000000  0.030661      6.000000
 -0.015330  0.015330  0.045991     24.000000
 -0.030661  0.030661  0.061322     24.000000
  0.045991 -0.045991 -0.015330     24.000000
  0.030661 -0.030661  0.000000     12.000000
  0.000000  0.000000  0.061322      6.000000
 -0.015330  0.015330  0.076652     24.000000
  0.061322 -0.061322  0.000000     12.000000
  0.000000  0.000000  0.091983      3.000000
  0.000000  0.030661  0.061322     24.000000
  0.076652 -0.045991 -0.015330     24.000000
  0.091983 -0.061322  0.000000     12.000000
 


--------------------------------------------------------------------------------------------------------




 Dimension of arrays:
   k-points           NKPTS =     16   k-points in BZ     NKDIM =     16   number of bands    NBANDS=     48
   number of dos      NEDOS =   1000   number of ions     NIONS =     16
   non local maximal  LDIM  =      4   non local SUM 2l+1 LMDIM =      8
   total plane-waves  NPLWV = 262144
   max r-space proj   IRMAX =      1   max aug-charges    IRDMAX= 218451
   dimension x,y,z NGX =    64 NGY =   64 NGZ =   64
   dimension x,y,z NGXF=   128 NGYF=  128 NGZF=  128
   support grid    NGXF=   256 NGYF=  256 NGZF=  256
   ions per type =              16
   NGX,Y,Z   is equivalent  to a cutoff of  13.84, 13.84, 13.84 a.u.
   NGXF,Y,Z  is equivalent  to a cutoff of  27.68, 27.68, 27.68 a.u.

 SYSTEM =  unknown system                          
 POSCAR =  generated by phonopy                    

 Startparameter for this run:
   NWRITE =      2    write-flag & timer
   PREC   = accura    normal or accurate (medium, high low for compatibility)
   ISTART =      0    job   : 0-new  1-cont  2-samecut
   ICHARG =      2    charge: 1-file 2-atom 10-const
   ISPIN  =      1    spin polarized calculation?
   LNONCOLLINEAR =      F non collinear calculations
   LSORBIT =      F    spin-orbit coupling
   INIWAV =      1    electr: 0-lowe 1-rand  2-diag
   LASPH  =      F    aspherical Exc in radial PAW
 Electronic Relaxation 1
   ENCUT  =  600.0 eV  44.10 Ry    6.64 a.u.  15.35 15.35 15.35*2*pi/ulx,y,z
   ENINI  =  600.0     initial cutoff
   ENAUG  =  322.1 eV  augmentation charge cutoff
   NELM   =    500;   NELMIN=  5; NELMDL=  0     # of ELM steps 
   EDIFF  = 0.1E-07   stopping-criterion for ELM
   LREAL  =      F    real-space projection
   NLSPLINE    = F    spline interpolate recip. space projectors
   LCOMPAT=      F    compatible to vasp.4.4
   GGA_COMPAT  = T    GGA compatible to vasp.4.4-vasp.4.6
   LMAXPAW     = -100 max onsite density
   LMAXMIX     =    4 max onsite mixed and CHGCAR
   VOSKOWN=      0    Vosko Wilk Nusair interpolation
   ROPT   =    0.00000
 Ionic relaxation
   EDIFFG = -.1E-06   stopping-criterion for IOM
   NSW    =    200    number of steps for IOM
   NBLOCK =      1;   KBLOCK =    200    inner block; outer block 
   IBRION =      2    ionic relax: 0-MD 1-quasi-New 2-CG
   NFREE  =      1    steps in history (QN), initial steepest desc. (CG)
   ISIF   =      2    stress and relaxation
   IWAVPR =     11    prediction:  0-non 1-charg 2-wave 3-comb
   ISYM   =      2    0-nonsym 1-usesym 2-fastsym
   LCORR  =      T    Harris-Foulkes like correction to forces

   POTIM  = 0.5000    time-step for ionic-motion
   TEIN   =    0.0    initial temperature
   TEBEG  =    0.0;   TEEND  =   0.0 temperature during run
   SMASS  =  -3.00    Nose mass-parameter (am)
   estimated Nose-frequenzy (Omega)   =  0.10E-29 period in steps = 0.13E+47 mass=  -0.135E-26a.u.
   SCALEE = 1.0000    scale energy and forces
   NPACO  =    256;   APACO  = 10.0  distance and # of slots for P.C.
   PSTRESS=    0.0 pullay stress

  Mass of Ions in am
   POMASS =  28.09
  Ionic Valenz
   ZVAL   =   4.00
  Atomic Wigner-Seitz radii
   RWIGS  =  -1.00
  virtual crystal weights 
   VCA    =   1.00
   NELECT =      64.0000    total number of electrons
   NUPDOWN=      -1.0000    fix difference up-down

 DOS related values:
   EMIN   =  10.00;   EMAX   =-10.00  energy-range for DOS
   EFERMI =   0.00
   ISMEAR =     0;   SIGMA  =   0.01  broadening in eV -4-tet -1-fermi 0-gaus

 Electronic relaxation 2 (details)
   IALGO  =     68    algorithm
   LDIAG  =      T    sub-space diagonalisation (order eigenvalues)
   LSUBROT=      F    optimize rotation matrix (better conditioning)
   TURBO    =      0    0=normal 1=particle mesh
   IRESTART =      0    0=no restart 2=restart with 2 vectors
   NREBOOT  =      0    no. of reboots
   NMIN     =      0    reboot dimension
   EREF     =   0.00    reference energy to select bands
   IMIX   =      4    mixing-type and parameters
     AMIX     =   0.40;   BMIX     =  1.00
     AMIX_MAG =   1.60;   BMIX_MAG =  1.00
     AMIN     =   0.10
     WC   =   100.;   INIMIX=   1;  MIXPRE=   1;  MAXMIX= -45

 Intra band minimization:
   WEIMIN = 0.0010     energy-eigenvalue tresh-hold
   EBREAK =  0.52E-10  absolut break condition
   DEPER  =   0.30     relativ break condition  

   TIME   =   0.40     timestep for ELM

  volume/ion in A,a.u.               =      20.08       135.49
  Fermi-wavevector in a.u.,A,eV,Ry     =   0.956152  1.806866 12.438817  0.914227
  Thomas-Fermi vector in A             =   2.085055

 Write flags
   LWAVE        =      T    write WAVECAR
   LDOWNSAMPLE  =      F    k-point downsampling of WAVECAR
   LCHARG       =      T    write CHGCAR
   LVTOT        =      F    write LOCPOT, total local potential
   LVHAR        =      F    write LOCPOT, Hartree potential only
   LELF         =      F    write electronic localiz. function (ELF)
   LORBIT       =     11    0 simple, 1 ext, 2 COOP (PROOUT), +10 PAW based schemes


 Dipole corrections
   LMONO  =      F    monopole corrections only (constant potential shift)
   LDIPOL =      F    correct potential (dipole corrections)
   IDIPOL =      0    1-x, 2-y, 3-z, 4-all directions 
   EPSILON=  1.0000000 bulk dielectric constant

 Core level calculations are selected ICORELEVEL =  1
 Exchange correlation treatment:
   GGA     =    PS    GGA type
   LEXCH   =    14    internal setting for exchange type
   LIBXC   =     F    Libxc                    
   VOSKOWN =     0    Vosko Wilk Nusair interpolation
   LHFCALC =     F    Hartree Fock is set to
   LHFONE  =     F    Hartree Fock one center treatment
   AEXX    =    0.0000 exact exchange contribution

 Linear response parameters
   LEPSILON=     F    determine dielectric tensor
   LRPA    =     F    only Hartree local field effects (RPA)
   LNABLA  =     F    use nabla operator in PAW spheres
   LVEL    =     F    velocity operator in full k-point grid
   CSHIFT  =0.1000    complex shift for real part using Kramers Kronig
   OMEGAMAX=  -1.0    maximum frequency
   DEG_THRESHOLD= 0.2000000E-02 threshold for treating states as degnerate
   RTIME   =   -0.100 relaxation time in fs
  (WPLASMAI=    0.000 imaginary part of plasma frequency in eV, 0.658/RTIME)
   DFIELD  = 0.0000000 0.0000000 0.0000000 field for delta impulse in time

  Optional k-point grid parameters
   LKPOINTS_OPT  =     F    use optional k-point grid
   KPOINTS_OPT_MODE=     1    mode for optional k-point grid

 Orbital magnetization related:
   ORBITALMAG=     F  switch on orbital magnetization
   LCHIMAG   =     F  perturbation theory with respect to B field
   DQ        =  0.001000  dq finite difference perturbation B field
   LLRAUG    =     F  two centre corrections for induced B field



--------------------------------------------------------------------------------------------------------


 conjugate gradient relaxation of ions
 charge density and potential will be updated during run
 non-spin polarized calculation
 RMM-DIIS sequential band-by-band and
  variant of blocked Davidson during initial phase
 perform sub-space diagonalisation
    before iterative eigenvector-optimisation
 modified Broyden-mixing scheme, WC =      100.0
 initial mixing is a Kerker type mixing with AMIX =  0.4000 and BMIX =      1.0000
 Hartree-type preconditioning will be used
 using additional bands           16
 reciprocal scheme for non local part
 use partial core corrections
 calculate Harris-corrections to forces   (improved forces if not selfconsistent)
 use gradient corrections 
 use of overlap-Matrix (Vanderbilt PP)
 Gauss-broadening in eV      SIGMA  =   0.01


--------------------------------------------------------------------------------------------------------


  energy-cutoff  :      600.00
  volume of cell :      321.24
      direct lattice vectors                 reciprocal lattice vectors
     0.000000000  5.435811800  5.435811800    -0.091982581  0.091982581  0.091982581
     5.435811800  0.000000000  5.435811800     0.091982581 -0.091982581  0.091982581
     5.435811800  5.435811800  0.000000000     0.091982581  0.091982581 -0.091982581

  length of vectors
     7.687398769  7.687398769  7.687398769     0.159318504  0.159318504  0.159318504



 k-points in units of 2pi/SCALE and weight: Regular k-point mesh                    
   0.00000000  0.00000000  0.00000000       0.005
  -0.01533043  0.01533043  0.01533043       0.037
  -0.03066086  0.03066086  0.03066086       0.037
  -0.04599129  0.04599129  0.04599129       0.019
   0.00000000  0.00000000  0.03066086       0.028
  -0.01533043  0.01533043  0.04599129       0.111
  -0.03066086  0.03066086  0.06132172       0.111
   0.04599129 -0.04599129 -0.01533043       0.111
   0.03066086 -0.03066086  0.00000000       0.056
   0.00000000  0.00000000  0.06132172       0.028
  -0.01533043  0.01533043  0.07665215       0.111
   0.06132172 -0.06132172  0.00000000       0.056
   0.00000000  0.00000000  0.09198258       0.014
   0.00000000  0.03066086  0.06132172       0.111
   0.07665215 -0.04599129 -0.01533043       0.111
   0.09198258 -0.06132172  0.00000000       0.056

 k-points in reciprocal lattice and weights: Regular k-point mesh                    
   0.00000000  0.00000000  0.00000000       0.005
   0.16666667  0.00000000  0.00000000       0.037
   0.33333333  0.00000000  0.00000000       0.037
   0.50000000  0.00000000  0.00000000       0.019
   0.16666667  0.16666667  0.00000000       0.028
   0.33333333  0.16666667  0.00000000       0.111
   0.50000000  0.16666667  0.00000000       0.111
  -0.33333333  0.16666667  0.00000000       0.111
  -0.16666667  0.16666667  0.00000000       0.056
   0.33333333  0.33333333  0.00000000       0.028
   0.50000000  0.33333333  0.00000000       0.111
  -0.33333333  0.33333333  0.00000000       0.056
   0.50000000  0.50000000  0.00000000       0.014
   0.50000000  0.33333333  0.16666667       0.111
  -0.33333333  0.33333333  0.16666667       0.111
  -0.33333333  0.50000000  0.16666667       0.056

 position of ions in fractional coordinates (direct lattice) 
   0.12503389  0.12512838  0.12544094
   0.62503444  0.12512956  0.12544034
   0.12503441  0.62512796  0.12544208
   0.62503379  0.62512939  0.12544259
   0.12503397  0.12512759  0.62544099
   0.62503330  0.12512970  0.62544108
   0.12503332  0.62512829  0.62544235
   0.62503426  0.62512958  0.62544182
   0.00003446  0.00012796  0.00044093
   0.50003400  0.00012940  0.00044099
   0.00003394  0.50012840  0.00044223
   0.50003457  0.50012960  0.00044176
   0.00003345  0.00012838  0.50044087
   0.50003417  0.00012974  0.50044034
   0.00003439  0.50012765  0.50044206
   0.50003342  0.50012976  0.50044252

 position of ions in cartesian coordinates  (Angst):
   1.36204764  1.36153404  1.35983500
   1.36205086  4.07943971  4.07775037
   4.07995752  1.36154308  4.07774147
   4.07996804  4.07944836  6.79565178
   4.07994954  4.07944062  1.35983119
   4.07996154  6.79734342  4.07774494
   6.79786667  4.07944453  4.07773735
   6.79787076  6.79735263  6.79565539
   0.00309238  0.00258410  0.00088288
   0.00310056  2.72048788  2.71879414
   2.72100774  0.00258837  2.71878832
   2.72101169  2.72049512  5.43670419
   2.72100022  2.72048422  0.00087965
   2.72100472  5.43839110  2.71879685
   5.43890867  2.72049581  2.71878673
   5.43892262  5.43839889  5.43669881



--------------------------------------------------------------------------------------------------------


 k-point   1 :   0.0000 0.0000 0.0000  plane waves:   10777
 k-point   2 :   0.1667 0.0000 0.0000  plane waves:   10765
 k-point   3 :   0.3333 0.0000 0.0000  plane waves:   10699
 k-point   4 :   0.5000 0.0000 0.0000  plane waves:   10730
 k-point   5 :   0.1667 0.1667 0.0000  plane waves:   10742
 k-point   6 :   0.3333 0.1667 0.0000  plane waves:   10709
 k-point   7 :   0.5000 0.1667 0.0000  plane waves:   10712
 k-point   8 :  -0.3333 0.1667 0.0000  plane waves:   10727
 k-point   9 :  -0.1667 0.1667 0.0000  plane waves:   10739
 k-point  10 :   0.3333 0.3333 0.0000  plane waves:   10742
 k-point  11 :   0.5000 0.3333 0.0000  plane waves:   10717
 k-point  12 :  -0.3333 0.3333 0.0000  plane waves:   10692
 k-point  13 :   0.5000 0.5000 0.0000  plane waves:   10718
 k-point  14 :   0.5000 0.3333 0.1667  plane waves:   10739
 k-point  15 :  -0.3333 0.3333 0.1667  plane waves:   10706
 k-point  16 :  -0.3333 0.5000 0.1667  plane waves:   10712

 maximum and minimum number of plane-waves per node :       695      655

 maximum number of plane-waves:     10777
 maximum index in each direction: 
   IXMAX=   15   IYMAX=   15   IZMAX=   15
   IXMIN=  -15   IYMIN=  -15   IZMIN=  -15


 parallel 3D FFT for wavefunctions:
    minimum data exchange during FFTs selected (reduces bandwidth)
 parallel 3D FFT for charge:
    minimum data exchange during FFTs selected (reduces bandwidth)


 total amount of memory used by VASP MPI-rank0    36369. kBytes
=======================================================================

   base      :      30000. kBytes
   nonl-proj :        890. kBytes
   fftplans  :       2941. kBytes
   grid      :       1454. kBytes
   one-center:          3. kBytes
   wavefun   :       1081. kBytes

     INWAV:  cpu time      0.0013: real time      0.0015
 Broyden mixing: mesh for mixing (old mesh)
   NGX = 31   NGY = 31   NGZ = 31
  (NGX  =128   NGY  =128   NGZ  =128)
  gives a total of  29791 points

 initial charge density was supplied:
 charge density of overlapping atoms calculated
 number of electron      64.0000000 magnetization 
 keeping initial charge density in first step


--------------------------------------------------------------------------------------------------------


 Maximum index for augmentation-charges         3932 (set IRDMAX)


--------------------------------------------------------------------------------------------------------


 First call to EWALD:  gamma=   0.259
 Maximum number of real-space cells 3x 3x 3
 Maximum number of reciprocal cells 3x 3x 3

    FEWALD:  cpu time      0.0050: real time      0.0052


--------------------------------------- Iteration      1(   1)  ---------------------------------------


    POTLOK:  cpu time      0.0319: real time      0.0331
    SETDIJ:  cpu time      0.0702: real time      0.0709
     EDDAV:  cpu time      0.5974: real time      0.6066
       DOS:  cpu time      0.0039: real time      0.0039
    --------------------------------------------
      LOOP:  cpu time      0.7035: real time      0.7147

 eigenvalue-minimisations  :  1536
 total energy-change (2. order) : 0.1545930E+03  (-0.2617469E+04)
 number of electron      64.0000000 magnetization 
 augmentation part       64.0000000 magnetization 

 Free energy of the ion-electron system (eV)
  ---------------------------------------------------
  alpha Z        PSCENC =        26.82694619
  Ewald energy   TEWEN  =     -1826.55336167
  -Hartree energ DENC   =       -88.39437998
  -exchange      EXHF   =         0.00000000
  -V(xc)+E(xc)   XCENC  =      -139.73341145
  PAW double counting   =      1399.65656354    -1123.04461034
  entropy T*S    EENTRO =        -0.00054920
  eigenvalues    EBANDS =       264.62380130
  atomic energy  EATOM  =      1641.21197842
  Solvation  Ediel_sol  =         0.00000000
  ---------------------------------------------------
  free energy    TOTEN  =       154.59297680 eV

  energy without entropy =      154.59352600  energy(sigma->0) =      154.59325140


--------------------------------------------------------------------------------------------------------




--------------------------------------- Iteration      1(   2)  ---------------------------------------


     EDDAV:  cpu time      0.6222: real time      0.6351
       DOS:  cpu time      0.0006: real time      0.0006
    --------------------------------------------
      LOOP:  cpu time      0.6228: real time      0.6357

 eigenvalue-minimisations  :  1872
 total energy-change (2. order) :-0.2339909E+03  (-0.2153246E+03)
 number of electron      64.0000000 magnetization 
 augmentation part       64.0000000 magnetization 

 Free energy of the ion-electron system (eV)
  ---------------------------------------------------
  alpha Z        PSCENC =        26.82694619
  Ewald energy   TEWEN  =     -1826.55336167
  -Hartree energ DENC   =       -88.39437998
  -exchange      EXHF   =         0.00000000
  -V(xc)+E(xc)   XCENC  =      -139.73341145
  PAW double counting   =      1399.65656354    -1123.04461034
  entropy T*S    EENTRO =        -0.00000000
  eigenvalues    EBANDS =        30.63231470
  atomic energy  EATOM  =      1641.21197842
  Solvation  Ediel_sol  =         0.00000000
  ---------------------------------------------------
  free energy    TOTEN  =       -79.39796060 eV

  energy without entropy =      -79.39796060  energy(sigma->0) =      -79.39796060


--------------------------------------------------------------------------------------------------------




--------------------------------------- Iteration      1(   3)  ---------------------------------------


     EDDAV:  cpu time      0.6464: real time      0.6626
       DOS:  cpu time      0.0005: real time      0.0005
    --------------------------------------------
      LOOP:  cpu time      0.6469: real time      0.6631

 eigenvalue-minimisations  :  1984
 total energy-change (2. order) :-0.1400887E+02  (-0.1374084E+02)
 number of electron      64.0000000 magnetization 
 augmentation part       64.0000000 magnetization 

 Free energy of the ion-electron system (eV)
  ---------------------------------------------------
  alpha Z        PSCENC =        26.82694619
  Ewald energy   TEWEN  =     -1826.55336167
  -Hartree energ DENC   =       -88.39437998
  -exchange      EXHF   =         0.00000000
  -V(xc)+E(xc)   XCENC  =      -139.73341145
  PAW double counting   =      1399.65656354    -1123.04461034
  entropy T*S    EENTRO =        -0.00000000
  eigenvalues    EBANDS =        16.62344820
  atomic energy  EATOM  =      1641.21197842
  Solvation  Ediel_sol  =         0.00000000
  ---------------------------------------------------
  free energy    TOTEN  =       -93.40682710 eV

  energy without entropy =      -93.40682710  energy(sigma->0) =      -93.40682710


--------------------------------------------------------------------------------------------------------




--------------------------------------- Iteration      1(   4)  ---------------------------------------


     EDDAV:  cpu time      0.6331: real time      0.6463
       DOS:  cpu time      0.0025: real time      0.0025
    --------------------------------------------
      LOOP:  cpu time      0.6357: real time      0.6488

 eigenvalue-minimisations  :  1920
 total energy-change (2. order) :-0.3031189E+00  (-0.3015591E+00)
 number of electron      64.0000000 magnetization 
 augmentation part       64.0000000 magnetization 

 Free energy of the ion-electron system (eV)
  ---------------------------------------------------
  alpha Z        PSCENC =        26.82694619
  Ewald energy   TEWEN  =     -1826.55336167
  -Hartree energ DENC   =       -88.39437998
  -exchange      EXHF   =         0.00000000
  -V(xc)+E(xc)   XCENC  =      -139.73341145
  PAW double counting   =      1399.65656354    -1123.04461034
  entropy T*S    EENTRO =        -0.00000000
  eigenvalues    EBANDS =        16.32032933
  atomic energy  EATOM  =      1641.21197842
  Solvation  Ediel_sol  =         0.00000000
  ---------------------------------------------------
  free energy    TOTEN  =       -93.70994597 eV

  energy without entropy =      -93.70994597  energy(sigma->0) =      -93.70994597


--------------------------------------------------------------------------------------------------------




--------------------------------------- Iteration      1(   5)  ---------------------------------------


     EDDAV:  cpu time      0.6294: real time      0.6457
       DOS:  cpu time      0.0005: real time      0.0005
    CHARGE:  cpu time      0.2678: real time      0.2679
    MIXING:  cpu time      0.0076: real time      0.0080
    --------------------------------------------
      LOOP:  cpu time      0.9052: real time      0.9220

 eigenvalue-minimisations  :  1936
 total energy-change (2. order) :-0.7523816E-02  (-0.7516930E-02)
 number of electron      64.0000000 magnetization 
 augmentation part       -3.7419909 magnetization 

 Broyden mixing:
  rms(total) = 0.14014E+01    rms(broyden)= 0.14014E+01
  rms(prec ) = 0.17993E+01
  weight for this iteration     100.00

 Free energy of the ion-electron system (eV)
  ---------------------------------------------------
  alpha Z        PSCENC =        26.82694619
  Ewald energy   TEWEN  =     -1826.55336167
  -Hartree energ DENC   =       -88.39437998
  -exchange      EXHF   =         0.00000000
  -V(xc)+E(xc)   XCENC  =      -139.73341145
  PAW double counting   =      1399.65656354    -1123.04461034
  entropy T*S    EENTRO =        -0.00000000
  eigenvalues    EBANDS =        16.31280551
  atomic energy  EATOM  =      1641.21197842
  Solvation  Ediel_sol  =         0.00000000
  ---------------------------------------------------
  free energy    TOTEN  =       -93.71746979 eV

  energy without entropy =      -93.71746979  energy(sigma->0) =      -93.71746979


--------------------------------------------------------------------------------------------------------




--------------------------------------- Iteration      1(   6)  ---------------------------------------


    POTLOK:  cpu time      0.0264: real time      0.0416
    SETDIJ:  cpu time      0.0610: real time      0.0610
    EDDIAG:  cpu time      0.1877: real time      0.1882
  RMM-DIIS:  cpu time      0.2924: real time      0.2926
    ORTHCH:  cpu time      0.0136: real time      0.0136
       DOS:  cpu time      0.0005: real time      0.0005
    CHARGE:  cpu time      0.2512: real time      0.2514
    MIXING:  cpu time      0.0023: real time      0.0023
    --------------------------------------------
      LOOP:  cpu time      0.8351: real time      0.8512

 eigenvalue-minimisations  :  1536
 total energy-change (2. order) : 0.1224568E+01  (-0.5440383E-01)
 number of electron      64.0000000 magnetization 
 augmentation part       -3.7014672 magnetization 

 Broyden mixing:
  rms(total) = 0.84162E+00    rms(broyden)= 0.84162E+00
  rms(prec ) = 0.10685E+01
  weight for this iteration     100.00

 eigenvalues of (default mixing * dielectric matrix)
  average eigenvalue GAMMA=   2.4979
  2.4979

 Free energy of the ion-electron system (eV)
  ---------------------------------------------------
  alpha Z        PSCENC =        26.82694619
  Ewald energy   TEWEN  =     -1826.55336167
  -Hartree energ DENC   =       -99.84910285
  -exchange      EXHF   =         0.00000000
  -V(xc)+E(xc)   XCENC  =      -137.92682154
  PAW double counting   =      3073.59244582    -2797.78454813
  entropy T*S    EENTRO =        -0.00000000
  eigenvalues    EBANDS =        27.98956218
  atomic energy  EATOM  =      1641.21197842
  Solvation  Ediel_sol  =         0.00000000
  ---------------------------------------------------
  free energy    TOTEN  =       -92.49290158 eV

  energy without entropy =      -92.49290158  energy(sigma->0) =      -92.49290158


--------------------------------------------------------------------------------------------------------




--------------------------------------- Iteration      1(   7)  ---------------------------------------


    POTLOK:  cpu time      0.0419: real time      0.0421
    SETDIJ:  cpu time      0.0637: real time      0.0637
    EDDIAG:  cpu time      0.1781: real time      0.1781
  RMM-DIIS:  cpu time      0.2883: real time      0.2883
    ORTHCH:  cpu time      0.0137: real time      0.0137
       DOS:  cpu time      0.0005: real time      0.0005
    CHARGE:  cpu time      0.2510: real time      0.2512
    MIXING:  cpu time      0.0006: real time      0.0006
    --------------------------------------------
      LOOP:  cpu time      0.8378: real time      0.8383

 eigenvalue-minimisations  :  1536
 total energy-change (2. order) : 0.5612719E+00  (-0.1287578E+00)
 number of electron      64.0000000 magnetization 
 augmentation part       -3.6478571 magnetization 

 Broyden mixing:
  rms(total) = 0.46224E-01    rms(broyden)= 0.46224E-01
  rms(prec ) = 0.73530E-01
  weight for this iteration     100.00

 eigenvalues of (default mixing * dielectric matrix)
  average eigenvalue GAMMA=   2.2802
  2.2802  2.2802

 Free energy of the ion-electron system (eV)
  ---------------------------------------------------
  alpha Z        PSCENC =        26.82694619
  Ewald energy   TEWEN  =     -1826.55336167
  -Hartree energ DENC   =      -118.35083505
  -exchange      EXHF   =         0.00000000
  -V(xc)+E(xc)   XCENC  =      -134.85974841
  PAW double counting   =      6992.07323143    -6717.35057480
  entropy T*S    EENTRO =        -0.00000000
  eigenvalues    EBANDS =        45.07073424
  atomic energy  EATOM  =      1641.21197842
  Solvation  Ediel_sol  =         0.00000000
  ---------------------------------------------------
  free energy    TOTEN  =       -91.93162967 eV

  energy without entropy =      -91.93162967  energy(sigma->0) =      -91.93162967


--------------------------------------------------------------------------------------------------------




--------------------------------------- Iteration      1(   8)  ---------------------------------------


    POTLOK:  cpu time      0.0267: real time      0.0416
    SETDIJ:  cpu time      0.0666: real time      0.0667
    EDDIAG:  cpu time      0.1789: real time      0.1789
  RMM-DIIS:  cpu time      0.2882: real time      0.2882
    ORTHCH:  cpu time      0.0136: real time      0.0136
       DOS:  cpu time      0.0005: real time      0.0005
    CHARGE:  cpu time      0.2514: real time      0.2514
    MIXING:  cpu time      0.0007: real time      0.0007
    --------------------------------------------
      LOOP:  cpu time      0.8267: real time      0.8416

 eigenvalue-minimisations  :  1542
 total energy-change (2. order) :-0.1012406E-01  (-0.1194210E-01)
 number of electron      64.0000000 magnetization 
 augmentation part       -3.6616803 magnetization 

 Broyden mixing:
  rms(total) = 0.24869E-01    rms(broyden)= 0.24868E-01
  rms(prec ) = 0.30966E-01
  weight for this iteration     100.00

 eigenvalues of (default mixing * dielectric matrix)
  average eigenvalue GAMMA=   2.3934
  2.6091  2.2856  2.2856

 Free energy of the ion-electron system (eV)
  ---------------------------------------------------
  alpha Z        PSCENC =        26.82694619
  Ewald energy   TEWEN  =     -1826.55336167
  -Hartree energ DENC   =      -116.79338714
  -exchange      EXHF   =         0.00000000
  -V(xc)+E(xc)   XCENC  =      -134.96184463
  PAW double counting   =      6948.37177666    -6673.44011190
  entropy T*S    EENTRO =        -0.00000000
  eigenvalues    EBANDS =        43.39625035
  atomic energy  EATOM  =      1641.21197842
  Solvation  Ediel_sol  =         0.00000000
  ---------------------------------------------------
  free energy    TOTEN  =       -91.94175373 eV

  energy without entropy =      -91.94175373  energy(sigma->0) =      -91.94175373


--------------------------------------------------------------------------------------------------------




--------------------------------------- Iteration      1(   9)  ---------------------------------------


    POTLOK:  cpu time      0.0427: real time      0.0428
    SETDIJ:  cpu time      0.0627: real time      0.0628
    EDDIAG:  cpu time      0.1778: real time      0.1780
  RMM-DIIS:  cpu time      0.2901: real time      0.2901
    ORTHCH:  cpu time      0.0137: real time      0.0136
       DOS:  cpu time      0.0005: real time      0.0005
    CHARGE:  cpu time      0.2511: real time      0.2511
    MIXING:  cpu time      0.0009: real time      0.0009
    --------------------------------------------
      LOOP:  cpu time      0.8395: real time      0.8399

 eigenvalue-minimisations  :  1557
 total energy-change (2. order) :-0.3396753E-02  (-0.3503163E-02)
 number of electron      64.0000000 magnetization 
 augmentation part       -3.6595411 magnetization 

 Broyden mixing:
  rms(total) = 0.27076E-01    rms(broyden)= 0.27076E-01
  rms(prec ) = 0.32436E-01
  weight for this iteration     100.00

 eigenvalues of (default mixing * dielectric matrix)
  average eigenvalue GAMMA=   1.8914
  2.6094  2.4216  2.4216  0.1128

 Free energy of the ion-electron system (eV)
  ---------------------------------------------------
  alpha Z        PSCENC =        26.82694619
  Ewald energy   TEWEN  =     -1826.55336167
  -Hartree energ DENC   =      -117.46842378
  -exchange      EXHF   =         0.00000000
  -V(xc)+E(xc)   XCENC  =      -134.87022508
  PAW double counting   =      7024.31241217    -6749.43087030
  entropy T*S    EENTRO =        -0.00000000
  eigenvalues    EBANDS =        44.02639357
  atomic energy  EATOM  =      1641.21197842
  Solvation  Ediel_sol  =         0.00000000
  ---------------------------------------------------
  free energy    TOTEN  =       -91.94515048 eV

  energy without entropy =      -91.94515048  energy(sigma->0) =      -91.94515048


--------------------------------------------------------------------------------------------------------




--------------------------------------- Iteration      1(  10)  ---------------------------------------


    POTLOK:  cpu time      0.0288: real time      0.0448
    SETDIJ:  cpu time      0.0639: real time      0.0639
    EDDIAG:  cpu time      0.1909: real time      0.1911
  RMM-DIIS:  cpu time      0.3137: real time      0.3137
    ORTHCH:  cpu time      0.0136: real time      0.0136
       DOS:  cpu time      0.0005: real time      0.0005
    CHARGE:  cpu time      0.2504: real time      0.2504
    MIXING:  cpu time      0.0011: real time      0.0011
    --------------------------------------------
      LOOP:  cpu time      0.8628: real time      0.8791

 eigenvalue-minimisations  :  1560
 total energy-change (2. order) :-0.5413180E-03  (-0.5891805E-03)
 number of electron      64.0000000 magnetization 
 augmentation part       -3.6615558 magnetization 

 Broyden mixing:
  rms(total) = 0.27951E-01    rms(broyden)= 0.27951E-01
  rms(prec ) = 0.31701E-01
  weight for this iteration     100.00

 eigenvalues of (default mixing * dielectric matrix)
  average eigenvalue GAMMA=   2.3046
  4.5026  2.6943  1.8591  1.8591  0.6079

 Free energy of the ion-electron system (eV)
  ---------------------------------------------------
  alpha Z        PSCENC =        26.82694619
  Ewald energy   TEWEN  =     -1826.55336167
  -Hartree energ DENC   =      -117.40414611
  -exchange      EXHF   =         0.00000000
  -V(xc)+E(xc)   XCENC  =      -134.87766706
  PAW double counting   =      7005.60103579    -6730.71530650
  entropy T*S    EENTRO =        -0.00000000
  eigenvalues    EBANDS =        43.96482914
  atomic energy  EATOM  =      1641.21197842
  Solvation  Ediel_sol  =         0.00000000
  ---------------------------------------------------
  free energy    TOTEN  =       -91.94569180 eV

  energy without entropy =      -91.94569180  energy(sigma->0) =      -91.94569180


--------------------------------------------------------------------------------------------------------




--------------------------------------- Iteration      1(  11)  ---------------------------------------


    POTLOK:  cpu time      0.0424: real time      0.0427
    SETDIJ:  cpu time      0.0632: real time      0.0632
    EDDIAG:  cpu time      0.1778: real time      0.1778
  RMM-DIIS:  cpu time      0.2832: real time      0.2835
    ORTHCH:  cpu time      0.0137: real time      0.0137
       DOS:  cpu time      0.0005: real time      0.0005
    CHARGE:  cpu time      0.2502: real time      0.2502
    MIXING:  cpu time      0.0010: real time      0.0010
    --------------------------------------------
      LOOP:  cpu time      0.8320: real time      0.8327

 eigenvalue-minimisations  :  1536
 total energy-change (2. order) : 0.8688850E-03  (-0.2090115E-03)
 number of electron      64.0000000 magnetization 
 augmentation part       -3.6654092 magnetization 

 Broyden mixing:
  rms(total) = 0.12273E+00    rms(broyden)= 0.12273E+00
  rms(prec ) = 0.12567E+00
  weight for this iteration     100.00

 eigenvalues of (default mixing * dielectric matrix)
  average eigenvalue GAMMA=   2.1205
  5.2701  2.5578  2.3394  1.2338  0.6609  0.6609

 Free energy of the ion-electron system (eV)
  ---------------------------------------------------
  alpha Z        PSCENC =        26.82694619
  Ewald energy   TEWEN  =     -1826.55336167
  -Hartree energ DENC   =      -116.86302280
  -exchange      EXHF   =         0.00000000
  -V(xc)+E(xc)   XCENC  =      -134.90842407
  PAW double counting   =      7191.38606109    -6916.42956328
  entropy T*S    EENTRO =        -0.00000000
  eigenvalues    EBANDS =        43.38456321
  atomic energy  EATOM  =      1641.21197842
  Solvation  Ediel_sol  =         0.00000000
  ---------------------------------------------------
  free energy    TOTEN  =       -91.94482292 eV

  energy without entropy =      -91.94482292  energy(sigma->0) =      -91.94482292


--------------------------------------------------------------------------------------------------------




--------------------------------------- Iteration      1(  12)  ---------------------------------------


    POTLOK:  cpu time      0.0329: real time      0.0433
    SETDIJ:  cpu time      0.0630: real time      0.0630
    EDDIAG:  cpu time      0.1780: real time      0.1780
  RMM-DIIS:  cpu time      0.2830: real time      0.2830
    ORTHCH:  cpu time      0.0136: real time      0.0136
       DOS:  cpu time      0.0005: real time      0.0005
    CHARGE:  cpu time      0.2505: real time      0.2507
    MIXING:  cpu time      0.0009: real time      0.0009
    --------------------------------------------
      LOOP:  cpu time      0.8225: real time      0.8331

 eigenvalue-minimisations  :  1536
 total energy-change (2. order) :-0.9420716E-03  (-0.2085188E-03)
 number of electron      64.0000000 magnetization 
 augmentation part       -3.6637592 magnetization 

 Broyden mixing:
  rms(total) = 0.25861E-01    rms(broyden)= 0.25861E-01
  rms(prec ) = 0.26957E-01
  weight for this iteration     100.00

 eigenvalues of (default mixing * dielectric matrix)
  average eigenvalue GAMMA=   1.5526
  2.8858  2.7436  1.9786  1.1822  0.8277  0.8277  0.4223

 Free energy of the ion-electron system (eV)
  ---------------------------------------------------
  alpha Z        PSCENC =        26.82694619
  Ewald energy   TEWEN  =     -1826.55336167
  -Hartree energ DENC   =      -117.33402668
  -exchange      EXHF   =         0.00000000
  -V(xc)+E(xc)   XCENC  =      -134.87490349
  PAW double counting   =      6891.08125290    -6616.17859774
  entropy T*S    EENTRO =        -0.00000000
  eigenvalues    EBANDS =        43.87494708
  atomic energy  EATOM  =      1641.21197842
  Solvation  Ediel_sol  =         0.00000000
  ---------------------------------------------------
  free energy    TOTEN  =       -91.94576499 eV

  energy without entropy =      -91.94576499  energy(sigma->0) =      -91.94576499


--------------------------------------------------------------------------------------------------------




--------------------------------------- Iteration      1(  13)  ---------------------------------------


    POTLOK:  cpu time      0.0419: real time      0.0422
    SETDIJ:  cpu time      0.0647: real time      0.0648
    EDDIAG:  cpu time      0.1770: real time      0.1770
  RMM-DIIS:  cpu time      0.2833: real time      0.2833
    ORTHCH:  cpu time      0.0137: real time      0.0137
       DOS:  cpu time      0.0005: real time      0.0005
    CHARGE:  cpu time      0.2503: real time      0.2507
    MIXING:  cpu time      0.0011: real time      0.0011
    --------------------------------------------
      LOOP:  cpu time      0.8325: real time      0.8332

 eigenvalue-minimisations  :  1536
 total energy-change (2. order) :-0.8304684E-04  (-0.2006907E-04)
 number of electron      64.0000000 magnetization 
 augmentation part       -3.6639863 magnetization 

 Broyden mixing:
  rms(total) = 0.10071E-01    rms(broyden)= 0.10071E-01
  rms(prec ) = 0.10179E-01
  weight for this iteration     100.00

 eigenvalues of (default mixing * dielectric matrix)
  average eigenvalue GAMMA=   1.5417
  3.0450  2.5761  1.7778  1.7778  0.7926  0.7926  0.7857  0.7857

 Free energy of the ion-electron system (eV)
  ---------------------------------------------------
  alpha Z        PSCENC =        26.82694619
  Ewald energy   TEWEN  =     -1826.55336167
  -Hartree energ DENC   =      -117.16197013
  -exchange      EXHF   =         0.00000000
  -V(xc)+E(xc)   XCENC  =      -134.89226889
  PAW double counting   =      6946.19113001    -6671.27345189
  entropy T*S    EENTRO =        -0.00000000
  eigenvalues    EBANDS =        43.70514994
  atomic energy  EATOM  =      1641.21197842
  Solvation  Ediel_sol  =         0.00000000
  ---------------------------------------------------
  free energy    TOTEN  =       -91.94584804 eV

  energy without entropy =      -91.94584804  energy(sigma->0) =      -91.94584804


--------------------------------------------------------------------------------------------------------




--------------------------------------- Iteration      1(  14)  ---------------------------------------


    POTLOK:  cpu time      0.0284: real time      0.0425
    SETDIJ:  cpu time      0.0637: real time      0.0639
    EDDIAG:  cpu time      0.1770: real time      0.1770
  RMM-DIIS:  cpu time      0.3024: real time      0.3024
    ORTHCH:  cpu time      0.0137: real time      0.0137
       DOS:  cpu time      0.0005: real time      0.0005
    CHARGE:  cpu time      0.2510: real time      0.2510
    MIXING:  cpu time      0.0011: real time      0.0011
    --------------------------------------------
      LOOP:  cpu time      0.8377: real time      0.8520

 eigenvalue-minimisations  :  1607
 total energy-change (2. order) :-0.7440806E-05  (-0.5850570E-05)
 number of electron      64.0000000 magnetization 
 augmentation part       -3.6641640 magnetization 

 Broyden mixing:
  rms(total) = 0.56725E-02    rms(broyden)= 0.56725E-02
  rms(prec ) = 0.57861E-02
  weight for this iteration     100.00

 eigenvalues of (default mixing * dielectric matrix)
  average eigenvalue GAMMA=   1.6253
  2.6299  2.6299  2.6563  1.8220  1.0661  1.0661  1.2008  0.8993  0.6575

 Free energy of the ion-electron system (eV)
  ---------------------------------------------------
  alpha Z        PSCENC =        26.82694619
  Ewald energy   TEWEN  =     -1826.55336167
  -Hartree energ DENC   =      -117.16772368
  -exchange      EXHF   =         0.00000000
  -V(xc)+E(xc)   XCENC  =      -134.89142830
  PAW double counting   =      6932.89947476    -6657.98408904
  entropy T*S    EENTRO =        -0.00000000
  eigenvalues    EBANDS =        43.71234785
  atomic energy  EATOM  =      1641.21197842
  Solvation  Ediel_sol  =         0.00000000
  ---------------------------------------------------
  free energy    TOTEN  =       -91.94585548 eV

  energy without entropy =      -91.94585548  energy(sigma->0) =      -91.94585548


--------------------------------------------------------------------------------------------------------




--------------------------------------- Iteration      1(  15)  ---------------------------------------


    POTLOK:  cpu time      0.0422: real time      0.0423
    SETDIJ:  cpu time      0.0637: real time      0.0641
    EDDIAG:  cpu time      0.1769: real time      0.1769
  RMM-DIIS:  cpu time      0.2957: real time      0.2957
    ORTHCH:  cpu time      0.0137: real time      0.0137
       DOS:  cpu time      0.0005: real time      0.0005
    CHARGE:  cpu time      0.2505: real time      0.2505
    MIXING:  cpu time      0.0011: real time      0.0011
    --------------------------------------------
      LOOP:  cpu time      0.8442: real time      0.8447

 eigenvalue-minimisations  :  1548
 total energy-change (2. order) :-0.1763328E-06  (-0.8868028E-06)
 number of electron      64.0000000 magnetization 
 augmentation part       -3.6642528 magnetization 

 Broyden mixing:
  rms(total) = 0.24203E-02    rms(broyden)= 0.24203E-02
  rms(prec ) = 0.24525E-02
  weight for this iteration     100.00

 eigenvalues of (default mixing * dielectric matrix)
  average eigenvalue GAMMA=   1.5573
  2.7286  2.7286  2.4433  1.5409  1.5409  1.2257  0.9012  0.9012  0.8826  0.6800

 Free energy of the ion-electron system (eV)
  ---------------------------------------------------
  alpha Z        PSCENC =        26.82694619
  Ewald energy   TEWEN  =     -1826.55336167
  -Hartree energ DENC   =      -117.13439998
  -exchange      EXHF   =         0.00000000
  -V(xc)+E(xc)   XCENC  =      -134.89670875
  PAW double counting   =      6904.12981506    -6629.21683374
  entropy T*S    EENTRO =        -0.00000000
  eigenvalues    EBANDS =        43.68670883
  atomic energy  EATOM  =      1641.21197842
  Solvation  Ediel_sol  =         0.00000000
  ---------------------------------------------------
  free energy    TOTEN  =       -91.94585565 eV

  energy without entropy =      -91.94585565  energy(sigma->0) =      -91.94585565


--------------------------------------------------------------------------------------------------------




--------------------------------------- Iteration      1(  16)  ---------------------------------------


    POTLOK:  cpu time      0.0260: real time      0.0429
    SETDIJ:  cpu time      0.0633: real time      0.0633
    EDDIAG:  cpu time      0.1768: real time      0.1770
  RMM-DIIS:  cpu time      0.3087: real time      0.3087
    ORTHCH:  cpu time      0.0137: real time      0.0137
       DOS:  cpu time      0.0005: real time      0.0005
    CHARGE:  cpu time      0.2508: real time      0.2508
    MIXING:  cpu time      0.0013: real time      0.0013
    --------------------------------------------
      LOOP:  cpu time      0.8411: real time      0.8582

 eigenvalue-minimisations  :  1604
 total energy-change (2. order) :-0.9896894E-06  (-0.2418594E-06)
 number of electron      64.0000000 magnetization 
 augmentation part       -3.6642478 magnetization 

 Broyden mixing:
  rms(total) = 0.17478E-02    rms(broyden)= 0.17478E-02
  rms(prec ) = 0.18037E-02
  weight for this iteration     100.00

 eigenvalues of (default mixing * dielectric matrix)
  average eigenvalue GAMMA=   1.5115
  2.6856  2.6856  2.4443  1.8585  1.8585  1.1745  0.8730  0.8730  0.8892  0.7094
  0.5745

 Free energy of the ion-electron system (eV)
  ---------------------------------------------------
  alpha Z        PSCENC =        26.82694619
  Ewald energy   TEWEN  =     -1826.55336167
  -Hartree energ DENC   =      -117.13623979
  -exchange      EXHF   =         0.00000000
  -V(xc)+E(xc)   XCENC  =      -134.89653796
  PAW double counting   =      6905.87732468    -6630.96451638
  entropy T*S    EENTRO =        -0.00000000
  eigenvalues    EBANDS =        43.68854988
  atomic energy  EATOM  =      1641.21197842
  Solvation  Ediel_sol  =         0.00000000
  ---------------------------------------------------
  free energy    TOTEN  =       -91.94585664 eV

  energy without entropy =      -91.94585664  energy(sigma->0) =      -91.94585664


--------------------------------------------------------------------------------------------------------




--------------------------------------- Iteration      1(  17)  ---------------------------------------


    POTLOK:  cpu time      0.0415: real time      0.0417
    SETDIJ:  cpu time      0.0635: real time      0.0635
    EDDIAG:  cpu time      0.1769: real time      0.1769
  RMM-DIIS:  cpu time      0.2827: real time      0.2830
    ORTHCH:  cpu time      0.0137: real time      0.0137
       DOS:  cpu time      0.0005: real time      0.0005
    CHARGE:  cpu time      0.2508: real time      0.2508
    MIXING:  cpu time      0.0014: real time      0.0014
    --------------------------------------------
      LOOP:  cpu time      0.8310: real time      0.8315

 eigenvalue-minimisations  :  1536
 total energy-change (2. order) : 0.2055749E-06  (-0.7301591E-07)
 number of electron      64.0000000 magnetization 
 augmentation part       -3.6642958 magnetization 

 Broyden mixing:
  rms(total) = 0.49725E-04    rms(broyden)= 0.49664E-04
  rms(prec ) = 0.54182E-04
  weight for this iteration     100.00

 eigenvalues of (default mixing * dielectric matrix)
  average eigenvalue GAMMA=   1.6253
  2.6034  2.6034  2.6174  2.6174  2.4199  0.9737  0.9737  1.0867  1.0188  1.0188
  0.9015  0.6689

 Free energy of the ion-electron system (eV)
  ---------------------------------------------------
  alpha Z        PSCENC =        26.82694619
  Ewald energy   TEWEN  =     -1826.55336167
  -Hartree energ DENC   =      -117.12694608
  -exchange      EXHF   =         0.00000000
  -V(xc)+E(xc)   XCENC  =      -134.89718095
  PAW double counting   =      6908.45730961    -6633.54415277
  entropy T*S    EENTRO =        -0.00000000
  eigenvalues    EBANDS =        43.67955083
  atomic energy  EATOM  =      1641.21197842
  Solvation  Ediel_sol  =         0.00000000
  ---------------------------------------------------
  free energy    TOTEN  =       -91.94585644 eV

  energy without entropy =      -91.94585644  energy(sigma->0) =      -91.94585644


--------------------------------------------------------------------------------------------------------




--------------------------------------- Iteration      1(  18)  ---------------------------------------


    POTLOK:  cpu time      0.0281: real time      0.0416
    SETDIJ:  cpu time      0.0628: real time      0.0628
    EDDIAG:  cpu time      0.1768: real time      0.1768
  RMM-DIIS:  cpu time      0.2848: real time      0.2851
    ORTHCH:  cpu time      0.0137: real time      0.0137
       DOS:  cpu time      0.0005: real time      0.0005
    CHARGE:  cpu time      0.2508: real time      0.2508
    MIXING:  cpu time      0.0013: real time      0.0013
    --------------------------------------------
      LOOP:  cpu time      0.8187: real time      0.8325

 eigenvalue-minimisations  :  1511
 total energy-change (2. order) :-0.2796878E-07  (-0.1599619E-07)
 number of electron      64.0000000 magnetization 
 augmentation part       -3.6643104 magnetization 

 Broyden mixing:
  rms(total) = 0.21763E-03    rms(broyden)= 0.21761E-03
  rms(prec ) = 0.22293E-03
  weight for this iteration     100.00

 eigenvalues of (default mixing * dielectric matrix)
  average eigenvalue GAMMA=   1.7063
  2.3373  2.9502  2.9502  2.5175  2.5175  2.4183  0.9625  0.9625  1.0528  1.0528
  0.6661  0.8970  0.8970

 Free energy of the ion-electron system (eV)
  ---------------------------------------------------
  alpha Z        PSCENC =        26.82694619
  Ewald energy   TEWEN  =     -1826.55336167
  -Hartree energ DENC   =      -117.12602659
  -exchange      EXHF   =         0.00000000
  -V(xc)+E(xc)   XCENC  =      -134.89727154
  PAW double counting   =      6908.74286014    -6633.82968230
  entropy T*S    EENTRO =        -0.00000000
  eigenvalues    EBANDS =        43.67870089
  atomic energy  EATOM  =      1641.21197842
  Solvation  Ediel_sol  =         0.00000000
  ---------------------------------------------------
  free energy    TOTEN  =       -91.94585646 eV

  energy without entropy =      -91.94585646  energy(sigma->0) =      -91.94585646


--------------------------------------------------------------------------------------------------------




--------------------------------------- Iteration      1(  19)  ---------------------------------------


    POTLOK:  cpu time      0.0419: real time      0.0420
    SETDIJ:  cpu time      0.0607: real time      0.0607
    EDDIAG:  cpu time      0.1769: real time      0.1769
  RMM-DIIS:  cpu time      0.2170: real time      0.2170
    ORTHCH:  cpu time      0.0141: real time      0.0140
       DOS:  cpu time      0.0005: real time      0.0005
    CHARGE:  cpu time      0.2503: real time      0.2507
    MIXING:  cpu time      0.0013: real time      0.0013
    --------------------------------------------
      LOOP:  cpu time      0.7626: real time      0.7632

 eigenvalue-minimisations  :  1101
 total energy-change (2. order) : 0.1868921E-07  (-0.2223586E-08)
 number of electron      64.0000000 magnetization 
 augmentation part       -3.6643141 magnetization 

 Broyden mixing:
  rms(total) = 0.20876E-03    rms(broyden)= 0.20875E-03
  rms(prec ) = 0.21604E-03
  weight for this iteration     100.00

 eigenvalues of (default mixing * dielectric matrix)
  average eigenvalue GAMMA=   1.5276
  2.8619  2.8619  2.5235  2.5235  2.4360  0.9607  0.9607  1.0361  1.0361  0.6662
  0.9005  0.9005  0.8592  0.8592

 Free energy of the ion-electron system (eV)
  ---------------------------------------------------
  alpha Z        PSCENC =        26.82694619
  Ewald energy   TEWEN  =     -1826.55336167
  -Hartree energ DENC   =      -117.12562032
  -exchange      EXHF   =         0.00000000
  -V(xc)+E(xc)   XCENC  =      -134.89733870
  PAW double counting   =      6908.49367389    -6633.58048562
  entropy T*S    EENTRO =        -0.00000000
  eigenvalues    EBANDS =        43.67835136
  atomic energy  EATOM  =      1641.21197842
  Solvation  Ediel_sol  =         0.00000000
  ---------------------------------------------------
  free energy    TOTEN  =       -91.94585645 eV

  energy without entropy =      -91.94585645  energy(sigma->0) =      -91.94585645


--------------------------------------------------------------------------------------------------------




--------------------------------------- Iteration      1(  20)  ---------------------------------------


    POTLOK:  cpu time      0.0290: real time      0.0446
    SETDIJ:  cpu time      0.0620: real time      0.0621
    EDDIAG:  cpu time      0.1771: real time      0.1771
  RMM-DIIS:  cpu time      0.2002: real time      0.2003
    ORTHCH:  cpu time      0.0137: real time      0.0137
       DOS:  cpu time      0.0005: real time      0.0005
    CHARGE:  cpu time      0.2506: real time      0.2506
    MIXING:  cpu time      0.0017: real time      0.0017
    --------------------------------------------
      LOOP:  cpu time      0.7348: real time      0.7504

 eigenvalue-minimisations  :  1029
 total energy-change (2. order) :-0.1658918E-07  (-0.8492030E-09)
 number of electron      64.0000000 magnetization 
 augmentation part       -3.6643112 magnetization 

 Broyden mixing:
  rms(total) = 0.12462E-03    rms(broyden)= 0.12459E-03
  rms(prec ) = 0.12930E-03
  weight for this iteration     100.00

 eigenvalues of (default mixing * dielectric matrix)
  average eigenvalue GAMMA=   1.6686
  3.2341  3.2341  2.5537  2.4344  2.4344  1.9858  1.9858  0.9635  0.9635  1.0374
  1.0374  0.9127  0.9127  0.6582  0.6809

 Free energy of the ion-electron system (eV)
  ---------------------------------------------------
  alpha Z        PSCENC =        26.82694619
  Ewald energy   TEWEN  =     -1826.55336167
  -Hartree energ DENC   =      -117.12626258
  -exchange      EXHF   =         0.00000000
  -V(xc)+E(xc)   XCENC  =      -134.89729462
  PAW double counting   =      6908.26294940    -6633.34978195
  entropy T*S    EENTRO =        -0.00000000
  eigenvalues    EBANDS =        43.67897036
  atomic energy  EATOM  =      1641.21197842
  Solvation  Ediel_sol  =         0.00000000
  ---------------------------------------------------
  free energy    TOTEN  =       -91.94585646 eV

  energy without entropy =      -91.94585646  energy(sigma->0) =      -91.94585646


--------------------------------------------------------------------------------------------------------




--------------------------------------- Iteration      1(  21)  ---------------------------------------


    POTLOK:  cpu time      0.0435: real time      0.0438
    SETDIJ:  cpu time      0.0651: real time      0.0651
    EDDIAG:  cpu time      0.1769: real time      0.1772
  RMM-DIIS:  cpu time      0.1991: real time      0.1991
    ORTHCH:  cpu time      0.0136: real time      0.0136
       DOS:  cpu time      0.0005: real time      0.0005
    CHARGE:  cpu time      0.2513: real time      0.2513
    MIXING:  cpu time      0.0016: real time      0.0016
    --------------------------------------------
      LOOP:  cpu time      0.7517: real time      0.7522

 eigenvalue-minimisations  :  1009
 total energy-change (2. order) :-0.2507295E-07  (-0.4925661E-09)
 number of electron      64.0000000 magnetization 
 augmentation part       -3.6643071 magnetization 

 Broyden mixing:
  rms(total) = 0.22343E-04    rms(broyden)= 0.22208E-04
  rms(prec ) = 0.22966E-04
  weight for this iteration     100.00

 eigenvalues of (default mixing * dielectric matrix)
  average eigenvalue GAMMA=   1.6287
  3.1717  3.1717  2.6598  2.6598  2.6846  2.3303  0.9646  0.9646  1.2592  1.2592
  1.0672  0.9220  0.9220  0.6699  0.6764  0.6764

 Free energy of the ion-electron system (eV)
  ---------------------------------------------------
  alpha Z        PSCENC =        26.82694619
  Ewald energy   TEWEN  =     -1826.55336167
  -Hartree energ DENC   =      -117.12718662
  -exchange      EXHF   =         0.00000000
  -V(xc)+E(xc)   XCENC  =      -134.89722252
  PAW double counting   =      6908.05269811    -6633.13955230
  entropy T*S    EENTRO =        -0.00000000
  eigenvalues    EBANDS =        43.67984390
  atomic energy  EATOM  =      1641.21197842
  Solvation  Ediel_sol  =         0.00000000
  ---------------------------------------------------
  free energy    TOTEN  =       -91.94585649 eV

  energy without entropy =      -91.94585649  energy(sigma->0) =      -91.94585649


--------------------------------------------------------------------------------------------------------




--------------------------------------- Iteration      1(  22)  ---------------------------------------


    POTLOK:  cpu time      0.0270: real time      0.0421
    SETDIJ:  cpu time      0.0637: real time      0.0637
    EDDIAG:  cpu time      0.1770: real time      0.1770
  RMM-DIIS:  cpu time      0.1789: real time      0.1791
    ORTHCH:  cpu time      0.0139: real time      0.0139
       DOS:  cpu time      0.0004: real time      0.0004
    --------------------------------------------
      LOOP:  cpu time      0.4790: real time      0.4944

 eigenvalue-minimisations  :   780
 total energy-change (2. order) :-0.4495632E-08  (-0.7767447E-10)
 number of electron      64.0000000 magnetization 
 augmentation part       -3.6643071 magnetization 

 Free energy of the ion-electron system (eV)
  ---------------------------------------------------
  alpha Z        PSCENC =        26.82694619
  Ewald energy   TEWEN  =     -1826.55336167
  -Hartree energ DENC   =      -117.12730887
  -exchange      EXHF   =         0.00000000
  -V(xc)+E(xc)   XCENC  =      -134.89721470
  PAW double counting   =      6908.02071315    -6633.10757135
  entropy T*S    EENTRO =        -0.00000000
  eigenvalues    EBANDS =        43.67996234
  atomic energy  EATOM  =      1641.21197842
  Solvation  Ediel_sol  =         0.00000000
  ---------------------------------------------------
  free energy    TOTEN  =       -91.94585649 eV

  energy without entropy =      -91.94585649  energy(sigma->0) =      -91.94585649


--------------------------------------------------------------------------------------------------------




 the core state eigenenergies are
   1-  1s  -1773.9811  2s   -127.9901  2p    -84.0139
   2-  1s  -1773.9811  2s   -127.9901  2p    -84.0139
   3-  1s  -1773.9811  2s   -127.9901  2p    -84.0139
   4-  1s  -1773.9811  2s   -127.9901  2p    -84.0139
   5-  1s  -1773.9811  2s   -127.9901  2p    -84.0139
   6-  1s  -1773.9811  2s   -127.9901  2p    -84.0139
   7-  1s  -1773.9811  2s   -127.9901  2p    -84.0139
   8-  1s  -1773.9810  2s   -127.9901  2p    -84.0139
   9-  1s  -1773.9810  2s   -127.9901  2p    -84.0139
  10-  1s  -1773.9810  2s   -127.9901  2p    -84.0138
  11-  1s  -1773.9810  2s   -127.9901  2p    -84.0139
  12-  1s  -1773.9810  2s   -127.9901  2p    -84.0138
  13-  1s  -1773.9810  2s   -127.9901  2p    -84.0138
  14-  1s  -1773.9810  2s   -127.9900  2p    -84.0138
  15-  1s  -1773.9810  2s   -127.9901  2p    -84.0138
  16-  1s  -1773.9810  2s   -127.9901  2p    -84.0138

 E-fermi :   5.8195     XC(G=0):  -9.5428     alpha+bet :-11.9461

 Fermi energy:         5.8195403499

 k-point     1 :       0.0000    0.0000    0.0000
  band No.  band energies     occupation 
      1      -6.2095      2.00000
      2      -3.8669      2.00000
      3      -3.8669      2.00000
      4      -3.8669      2.00000
      5      -3.8669      2.00000
      6      -2.0590      2.00000
      7      -2.0590      2.00000
      8      -2.0590      2.00000
      9      -2.0589      2.00000
     10      -2.0589      2.00000
     11      -2.0589      2.00000
     12      -1.2403      2.00000
     13      -1.2403      2.00000
     14      -1.2403      2.00000
     15      -1.2403      2.00000
     16       2.8944      2.00000
     17       2.8944      2.00000
     18       2.8944      2.00000
     19       2.8944      2.00000
     20       2.8944      2.00000
     21       2.8944      2.00000
     22       4.5603      2.00000
     23       4.5603      2.00000
     24       4.5603      2.00000
     25       4.5603      2.00000
     26       4.5603      2.00000
     27       4.5603      2.00000
     28       4.5603      2.00000
     29       4.5603      2.00000
     30       5.7613      2.00000
     31       5.7613      2.00000
     32       5.7613      2.00000
     33       6.3562      0.00000
     34       6.3562      0.00000
     35       6.3562      0.00000
     36       6.3562      0.00000
     37       6.3562      0.00000
     38       6.3562      0.00000
     39       7.2171      0.00000
     40       7.2171      0.00000
     41       7.2171      0.00000
     42       7.2171      0.00000
     43       8.2776      0.00000
     44       8.2778      0.00000
     45       8.2781      0.00000
     46       9.0357      0.00000
     47       9.0357      0.00000
     48       9.0493      0.00000

 k-point     2 :       0.1667    0.0000    0.0000
  band No.  band energies     occupation 
      1      -6.1184      2.00000
      2      -4.2049      2.00000
      3      -3.8301      2.00000
      4      -3.8301      2.00000
      5      -3.8301      2.00000
      6      -2.6564      2.00000
      7      -2.6564      2.00000
      8      -2.6564      2.00000
      9      -1.3908      2.00000
     10      -1.3908      2.00000
     11      -1.3908      2.00000
     12      -1.1349      2.00000
     13      -1.1349      2.00000
     14      -1.1349      2.00000
     15      -0.7307      2.00000
     16       2.5607      2.00000
     17       2.5607      2.00000
     18       2.5607      2.00000
     19       2.9705      2.00000
     20       2.9705      2.00000
     21       2.9705      2.00000
     22       3.9659      2.00000
     23       3.9659      2.00000
     24       3.9659      2.00000
     25       4.3805      2.00000
     26       4.3805      2.00000
     27       4.3805      2.00000
     28       4.6098      2.00000
     29       4.6098      2.00000
     30       4.8935      2.00000
     31       5.6159      2.00000
     32       5.6159      2.00000
     33       6.4218      0.00000
     34       6.4218      0.00000
     35       6.4218      0.00000
     36       6.9972      0.00000
     37       6.9972      0.00000
     38       6.9972      0.00000
     39       7.2745      0.00000
     40       7.7352      0.00000
     41       7.7352      0.00000
     42       7.7352      0.00000
     43       8.3125      0.00000
     44       8.4907      0.00000
     45       8.4908      0.00000
     46       8.9533      0.00000
     47       8.9578      0.00000
     48       8.9916      0.00000

 k-point     3 :       0.3333    0.0000    0.0000
  band No.  band energies     occupation 
      1      -5.8478      2.00000
      2      -4.8293      2.00000
      3      -3.7097      2.00000
      4      -3.7097      2.00000
      5      -3.7097      2.00000
      6      -3.1351      2.00000
      7      -3.1351      2.00000
      8      -3.1351      2.00000
      9      -0.8671      2.00000
     10      -0.8671      2.00000
     11      -0.8671      2.00000
     12      -0.8060      2.00000
     13      -0.8060      2.00000
     14      -0.8060      2.00000
     15       0.4038      2.00000
     16       2.0912      2.00000
     17       2.0912      2.00000
     18       2.0912      2.00000
     19       2.9590      2.00000
     20       2.9590      2.00000
     21       2.9590      2.00000
     22       3.1936      2.00000
     23       3.1936      2.00000
     24       3.1936      2.00000
     25       3.3645      2.00000
     26       3.9760      2.00000
     27       3.9760      2.00000
     28       3.9760      2.00000
     29       4.7576      2.00000
     30       4.7576      2.00000
     31       5.3074      2.00000
     32       5.3074      2.00000
     33       6.7152      0.00000
     34       6.7152      0.00000
     35       6.7152      0.00000
     36       7.4440      0.00000
     37       7.7122      0.00000
     38       7.7122      0.00000
     39       7.7122      0.00000
     40       8.0425      0.00000
     41       8.3834      0.00000
     42       8.3834      0.00000
     43       8.3834      0.00000
     44       8.9273      0.00000
     45       8.9274      0.00000
     46       9.2103      0.00000
     47       9.2112      0.00000
     48       9.8092      0.00000

 k-point     4 :       0.5000    0.0000    0.0000
  band No.  band energies     occupation 
      1      -5.4083      2.00000
      2      -5.4083      2.00000
      3      -3.4840      2.00000
      4      -3.4840      2.00000
      5      -3.4840      2.00000
      6      -3.4840      2.00000
      7      -3.4840      2.00000
      8      -3.4840      2.00000
      9      -0.6321      2.00000
     10      -0.6321      2.00000
     11      -0.6321      2.00000
     12      -0.6321      2.00000
     13      -0.6321      2.00000
     14      -0.6321      2.00000
     15       1.8144      2.00000
     16       1.8144      2.00000
     17       2.1914      2.00000
     18       2.1914      2.00000
     19       2.1914      2.00000
     20       2.1914      2.00000
     21       2.1914      2.00000
     22       2.1914      2.00000
     23       3.5444      2.00000
     24       3.5444      2.00000
     25       3.5444      2.00000
     26       3.5444      2.00000
     27       3.5444      2.00000
     28       3.5444      2.00000
     29       4.9977      2.00000
     30       4.9977      2.00000
     31       4.9978      2.00000
     32       4.9978      2.00000
     33       7.1782      0.00000
     34       7.1782      0.00000
     35       7.1782      0.00000
     36       7.1783      0.00000
     37       7.1783      0.00000
     38       7.1783      0.00000
     39       7.7130      0.00000
     40       7.7130      0.00000
     41       9.2173      0.00000
     42       9.2173      0.00000
     43       9.2174      0.00000
     44       9.2176      0.00000
     45      10.1171      0.00000
     46      10.1171      0.00000
     47      10.1171      0.00000
     48      10.1173      0.00000

 k-point     5 :       0.1667    0.1667    0.0000
  band No.  band energies     occupation 
      1      -6.0879      2.00000
      2      -3.9525      2.00000
      3      -3.9525      2.00000
      4      -3.9525      2.00000
      5      -3.9525      2.00000
      6      -3.2714      2.00000
      7      -2.0198      2.00000
      8      -2.0198      2.00000
      9      -2.0198      2.00000
     10      -2.0198      2.00000
     11      -0.9556      2.00000
     12      -0.9556      2.00000
     13      -0.9556      2.00000
     14      -0.9556      2.00000
     15      -0.7026      2.00000
     16       2.5767      2.00000
     17       2.5767      2.00000
     18       2.5767      2.00000
     19       2.5767      2.00000
     20       3.0041      2.00000
     21       3.0041      2.00000
     22       3.8693      2.00000
     23       3.8693      2.00000
     24       3.8693      2.00000
     25       3.8693      2.00000
     26       4.5252      2.00000
     27       4.5252      2.00000
     28       4.5252      2.00000
     29       4.5252      2.00000
     30       5.0629      2.00000
     31       5.3253      2.00000
     32       5.3253      2.00000
     33       6.2229      0.00000
     34       6.8198      0.00000
     35       6.9809      0.00000
     36       6.9809      0.00000
     37       6.9809      0.00000
     38       6.9809      0.00000
     39       7.7630      0.00000
     40       7.7630      0.00000
     41       7.7630      0.00000
     42       7.7631      0.00000
     43       7.9908      0.00000
     44       8.8621      0.00000
     45       8.8625      0.00000
     46       9.0692      0.00000
     47       9.0714      0.00000
     48       9.0749      0.00000

 k-point     6 :       0.3333    0.1667    0.0000
  band No.  band energies     occupation 
      1      -5.8766      2.00000
      2      -4.5389      2.00000
      3      -3.9674      2.00000
      4      -3.9674      2.00000
      5      -3.7666      2.00000
      6      -3.5937      2.00000
      7      -2.5614      2.00000
      8      -2.5614      2.00000
      9      -1.3814      2.00000
     10      -1.3814      2.00000
     11      -1.0287      2.00000
[...]
     12       0.1141      2.00000
     13       0.1141      2.00000
     14       1.2995      2.00000
     15       1.3127      2.00000
     16       1.3127      2.00000
     17       1.7110      2.00000
     18       1.7110      2.00000
     19       2.0343      2.00000
     20       2.1534      2.00000
     21       2.1534      2.00000
     22       2.9709      2.00000
     23       2.9709      2.00000
     24       3.3182      2.00000
     25       3.4439      2.00000
     26       3.4439      2.00000
     27       3.6386      2.00000
     28       3.7480      2.00000
     29       3.7480      2.00000
     30       4.0038      2.00000
     31       4.0038      2.00000
     32       5.1964      2.00000
     33       7.2238      0.00000
     34       7.6425      0.00000
     35       7.6425      0.00000
     36       8.5356      0.00000
     37       8.5356      0.00000
     38       8.7426      0.00000
     39       9.0217      0.00000
     40       9.0218      0.00000
     41       9.2461      0.00000
     42       9.2466      0.00000
     43       9.2711      0.00000
     44       9.3725      0.00000
     45       9.3736      0.00000
     46       9.5406      0.00000
     47       9.7568      0.00000
     48       9.7676      0.00000

 k-point    13 :       0.5000    0.5000    0.0000
  band No.  band energies     occupation 
      1      -5.1260      2.00000
      2      -5.1260      2.00000
      3      -4.1607      2.00000
      4      -4.1607      2.00000
      5      -4.1607      2.00000
      6      -4.1607      2.00000
      7      -1.8902      2.00000
      8      -1.8902      2.00000
      9      -1.8902      2.00000
     10      -1.8902      2.00000
     11       0.2736      2.00000
     12       0.2736      2.00000
     13       0.2736      2.00000
     14       0.2736      2.00000
     15       1.8652      2.00000
     16       1.8652      2.00000
     17       1.8652      2.00000
     18       1.8652      2.00000
     19       1.9668      2.00000
     20       1.9668      2.00000
     21       1.9668      2.00000
     22       1.9668      2.00000
     23       2.2415      2.00000
     24       2.2415      2.00000
     25       3.8583      2.00000
     26       3.8583      2.00000
     27       3.8583      2.00000
     28       3.8583      2.00000
     29       4.4278      2.00000
     30       4.4278      2.00000
     31       4.4278      2.00000
     32       4.4278      2.00000
     33       6.7979      0.00000
     34       6.7979      0.00000
     35       8.1251      0.00000
     36       8.1251      0.00000
     37       8.1251      0.00000
     38       8.1251      0.00000
     39       8.7867      0.00000
     40       8.7867      0.00000
     41       9.9342      0.00000
     42       9.9344      0.00000
     43       9.9348      0.00000
     44       9.9365      0.00000
     45      10.5106      0.00000
     46      10.5352      0.00000
     47      10.6341      0.00000
     48      10.6845      0.00000

 k-point    14 :       0.5000    0.3333    0.1667
  band No.  band energies     occupation 
      1      -5.6074      2.00000
      2      -4.5929      2.00000
      3      -4.5929      2.00000
      4      -4.2033      2.00000
      5      -3.4884      2.00000
      6      -3.4884      2.00000
      7      -2.9769      2.00000
      8      -2.4026      2.00000
      9      -1.4972      2.00000
     10      -0.8814      2.00000
     11      -0.8006      2.00000
     12      -0.8006      2.00000
     13       0.4733      2.00000
     14       0.4733      2.00000
     15       0.5734      2.00000
     16       1.4633      2.00000
     17       1.9533      2.00000
     18       2.1396      2.00000
     19       2.1396      2.00000
     20       2.5781      2.00000
     21       2.8957      2.00000
     22       2.9645      2.00000
     23       3.0252      2.00000
     24       3.3021      2.00000
     25       3.3021      2.00000
     26       3.3308      2.00000
     27       3.7738      2.00000
     28       3.7738      2.00000
     29       4.1063      2.00000
     30       4.4443      2.00000
     31       4.4443      2.00000
     32       5.0509      2.00000
     33       7.0628      0.00000
     34       7.4124      0.00000
     35       8.0308      0.00000
     36       8.1308      0.00000
     37       8.2973      0.00000
     38       8.2973      0.00000
     39       8.3478      0.00000
     40       8.3478      0.00000
     41       8.3575      0.00000
     42       8.7491      0.00000
     43       9.0836      0.00000
     44       9.0841      0.00000
     45       9.2592      0.00000
     46       9.4302      0.00000
     47       9.4310      0.00000
     48       9.8466      0.00000

 k-point    15 :      -0.3333    0.3333    0.1667
  band No.  band energies     occupation 
      1      -5.1701      2.00000
      2      -5.1701      2.00000
      3      -4.4811      2.00000
      4      -4.4811      2.00000
      5      -3.2878      2.00000
      6      -3.2878      2.00000
      7      -2.9294      2.00000
      8      -2.9294      2.00000
      9      -1.0538      2.00000
     10      -1.0538      2.00000
     11      -0.6581      2.00000
     12      -0.6581      2.00000
     13       0.7831      2.00000
     14       0.7831      2.00000
     15       1.4784      2.00000
     16       1.4784      2.00000
     17       1.7802      2.00000
     18       1.7802      2.00000
     19       1.8038      2.00000
     20       1.8039      2.00000
     21       2.8649      2.00000
     22       2.8649      2.00000
     23       3.1019      2.00000
     24       3.1020      2.00000
     25       3.3187      2.00000
     26       3.3187      2.00000
     27       3.5709      2.00000
     28       3.5709      2.00000
     29       3.8304      2.00000
     30       3.8304      2.00000
     31       4.7739      2.00000
     32       4.7740      2.00000
     33       7.8000      0.00000
     34       7.8000      0.00000
     35       7.8031      0.00000
     36       7.8031      0.00000
     37       8.3094      0.00000
     38       8.3094      0.00000
     39       8.9017      0.00000
     40       8.9017      0.00000
     41       9.2228      0.00000
     42       9.2230      0.00000
     43       9.4111      0.00000
     44       9.4120      0.00000
     45       9.4467      0.00000
     46       9.4472      0.00000
     47      10.2657      0.00000
     48      10.2838      0.00000

 k-point    16 :      -0.3333    0.5000    0.1667
  band No.  band energies     occupation 
      1      -5.0152      2.00000
      2      -5.0152      2.00000
      3      -4.6877      2.00000
      4      -4.6877      2.00000
      5      -3.4704      2.00000
      6      -3.4704      2.00000
      7      -2.6822      2.00000
      8      -2.6822      2.00000
      9      -1.1595      2.00000
     10      -1.1595      2.00000
     11      -0.4611      2.00000
     12      -0.4611      2.00000
     13       1.0658      2.00000
     14       1.0658      2.00000
     15       1.5057      2.00000
     16       1.5057      2.00000
     17       1.5651      2.00000
     18       1.5651      2.00000
     19       1.8360      2.00000
     20       1.8360      2.00000
     21       2.6270      2.00000
     22       2.6270      2.00000
     23       2.6493      2.00000
     24       2.6493      2.00000
     25       3.4071      2.00000
     26       3.4071      2.00000
     27       3.6671      2.00000
     28       3.6671      2.00000
     29       4.1226      2.00000
     30       4.1226      2.00000
     31       4.4799      2.00000
     32       4.4799      2.00000
     33       7.4698      0.00000
     34       7.4698      0.00000
     35       8.2009      0.00000
     36       8.2009      0.00000
     37       8.9046      0.00000
     38       8.9046      0.00000
     39       8.9969      0.00000
     40       8.9969      0.00000
     41       9.0564      0.00000
     42       9.0565      0.00000
     43       9.1886      0.00000
     44       9.1886      0.00000
     45      10.1592      0.00000
     46      10.1686      0.00000
     47      10.3440      0.00000
     48      10.4157      0.00000


--------------------------------------------------------------------------------------------------------


 soft charge-density along one line, spin component           1
         0         1         2         3         4         5         6         7         8         9
 total charge-density along one line

 pseudopotential strength for first ion, spin component:           1
 18.405  25.677  -0.000  -0.000   0.000  -0.000  -0.000   0.000
 25.677  35.826  -0.000  -0.000   0.000  -0.000  -0.000   0.000
 -0.000  -0.000   4.177   0.000   0.000   7.782   0.000   0.000
 -0.000  -0.000   0.000   4.177  -0.000   0.000   7.782  -0.000
  0.000   0.000   0.000  -0.000   4.177   0.000  -0.000   7.782
 -0.000  -0.000   7.782   0.000   0.000  14.509   0.000   0.000
 -0.000  -0.000   0.000   7.782  -0.000   0.000  14.509  -0.000
  0.000   0.000   0.000  -0.000   7.782   0.000  -0.000  14.509
 total augmentation occupancy for first ion, spin component:           1
  5.893  -2.260   0.000  -0.000  -0.000   0.000   0.000   0.000
 -2.260   0.978  -0.000   0.000   0.000   0.000  -0.000   0.000
 -0.000  -0.000   2.927  -0.000   0.000  -0.654   0.000  -0.000
  0.000   0.000  -0.000   2.927   0.000   0.000  -0.654  -0.000
  0.000   0.000   0.000  -0.000   2.927  -0.000   0.000  -0.654
 -0.000   0.000  -0.654   0.000  -0.000   0.155  -0.000   0.000
  0.000  -0.000   0.000  -0.654  -0.000  -0.000   0.155   0.000
 -0.000  -0.000  -0.000  -0.000  -0.654   0.000   0.000   0.155


------------------------ aborting loop because EDIFF is reached ----------------------------------------





 total charge

# of ion       s       p       d       tot
------------------------------------------
    1        0.752   0.937   0.000   1.689
    2        0.752   0.937   0.000   1.689
    3        0.752   0.937   0.000   1.689
    4        0.752   0.937   0.000   1.689
    5        0.752   0.937   0.000   1.689
    6        0.752   0.937   0.000   1.689
    7        0.752   0.937   0.000   1.689
    8        0.752   0.937   0.000   1.689
    9        0.752   0.937   0.000   1.689
   10        0.752   0.937   0.000   1.689
   11        0.752   0.937   0.000   1.689
   12        0.752   0.937   0.000   1.689
   13        0.752   0.937   0.000   1.689
   14        0.752   0.937   0.000   1.689
   15        0.752   0.937   0.000   1.689
   16        0.752   0.937   0.000   1.689
--------------------------------------------------
tot         12.037  14.985   0.000  27.021

    CHARGE:  cpu time      0.2463: real time      0.2464
    FORLOC:  cpu time      0.0018: real time      0.0018
    FORNL :  cpu time      0.4717: real time      0.4718
    STRESS:  cpu time      1.3757: real time      1.3764
    FORCOR:  cpu time      0.0171: real time      0.0171
    FORHAR:  cpu time      0.0061: real time      0.0061
    MIXING:  cpu time      0.0017: real time      0.0017
    OFIELD:  cpu time      0.0014: real time      0.0015

  FORCE on cell =-STRESS in cart. coord.  units (eV):
  Direction    XX          YY          ZZ          XY          YZ          ZX
  --------------------------------------------------------------------------------------
  Alpha Z    26.82695    26.82695    26.82695
  Ewald    -608.85308  -608.85308  -608.85308     0.00060    -0.00003     0.00021
  Hartree    39.04244    39.04244    39.04244    -0.00002     0.00000    -0.00001
  E(xc)    -204.26634  -204.26634  -204.26634    -0.00001     0.00000    -0.00000
  Local    -232.55250  -232.55250  -232.55250    -0.00029     0.00004    -0.00008
  n-local   623.93657   626.85488   610.81180     6.01048    -4.34886     3.17115
  augment   -92.13481   -92.13481   -92.13481    -0.00002    -0.00002    -0.00002
  Kinetic   456.29415   459.98456   437.91709    10.42205    -7.27132     5.19152
  Fock        0.00000     0.00000     0.00000     0.00000     0.00000     0.00000
  -------------------------------------------------------------------------------------
  Total      -0.00434    -0.00434    -0.00434     0.00000     0.00000     0.00000
  in kB      -0.02163    -0.02163    -0.02163     0.00000     0.00000     0.00000
  external pressure =       -0.02 kB  Pullay stress =        0.00 kB


 VOLUME and BASIS-vectors are now :
 -----------------------------------------------------------------------------
  energy-cutoff  :      600.00
  volume of cell :      321.24
      direct lattice vectors                 reciprocal lattice vectors
     0.000000000  5.435811800  5.435811800    -0.091982581  0.091982581  0.091982581
     5.435811800  0.000000000  5.435811800     0.091982581 -0.091982581  0.091982581
     5.435811800  5.435811800  0.000000000     0.091982581  0.091982581 -0.091982581

  length of vectors
     7.687398769  7.687398769  7.687398769     0.159318504  0.159318504  0.159318504


 FORCES acting on ions
    electron-ion (+dipol)            ewald-force                    non-local-force                 convergence-correction
 -----------------------------------------------------------------------------------------------
   -.123E-03 0.164E-03 0.264E-04   -.609E-04 -.171E-04 0.187E-04   -.260E-16 -.412E-16 0.185E-16   -.544E-08 -.166E-07 -.315E-08
   -.282E-03 0.172E-03 -.446E-03   -.200E-04 -.746E-04 0.641E-04   -.478E-16 -.321E-16 0.305E-16   -.479E-08 0.215E-08 0.174E-07
   -.321E-03 -.284E-03 -.421E-05   -.297E-04 0.981E-04 -.196E-04   -.676E-17 -.874E-16 -.126E-16   0.291E-08 -.377E-08 0.536E-08
   -.841E-03 -.252E-03 -.223E-03   0.118E-03 0.109E-03 0.410E-04   -.178E-16 -.746E-16 -.354E-16   -.158E-07 -.431E-08 0.249E-08
   0.723E-04 0.131E-03 0.213E-03   -.153E-03 -.228E-06 -.647E-04   -.506E-16 -.463E-16 -.973E-16   0.174E-07 0.442E-08 -.470E-08
   -.519E-03 0.283E-03 -.174E-03   0.340E-04 -.592E-04 0.520E-04   -.599E-17 -.255E-16 -.335E-16   -.129E-08 0.364E-08 -.332E-08
   -.481E-03 -.658E-04 0.202E-03   0.263E-04 -.350E-05 -.316E-04   -.351E-16 -.277E-16 -.946E-16   0.245E-08 -.206E-08 -.154E-07
   -.684E-03 -.176E-03 -.399E-03   0.760E-04 0.123E-04 0.125E-03   -.161E-16 -.330E-16 -.668E-16   0.309E-08 0.164E-07 0.917E-09
   -.956E-05 0.142E-04 -.194E-04   -.996E-04 0.656E-05 -.500E-04   -.119E-15 -.724E-16 -.557E-16   0.886E-08 0.211E-09 0.886E-08
   -.413E-03 0.119E-03 -.285E-03   0.166E-04 -.150E-04 0.738E-05   -.144E-15 -.850E-16 -.212E-16   -.956E-08 -.872E-08 -.400E-09
   -.476E-03 -.198E-03 0.350E-05   0.462E-04 0.406E-04 -.538E-04   -.721E-16 -.192E-16 -.312E-16   -.955E-08 -.101E-07 -.843E-08
   -.673E-03 -.243E-03 -.491E-03   0.744E-04 0.113E-04 0.502E-04   -.697E-16 -.605E-16 -.365E-16   0.989E-09 0.987E-08 0.836E-08
   -.106E-03 0.298E-03 0.140E-03   -.833E-04 -.103E-03 -.919E-04   -.621E-16 0.993E-17 -.723E-16   -.914E-09 -.824E-08 -.989E-08
   -.329E-03 0.248E-03 -.420E-03   -.381E-04 -.108E-03 0.273E-04   -.682E-16 0.724E-17 -.691E-16   0.963E-08 0.842E-08 0.971E-08
   -.233E-03 -.275E-03 0.814E-04   -.770E-04 0.529E-04 -.913E-04   -.655E-16 -.165E-16 -.944E-16   0.886E-08 0.104E-07 0.170E-08
   -.920E-03 -.134E-03 -.223E-03   0.169E-03 0.493E-04 0.174E-04   -.950E-16 0.348E-17 -.108E-15   -.958E-08 -.184E-08 -.104E-07
 -----------------------------------------------------------------------------------------------
   -.634E-02 -.198E-03 -.202E-02   0.776E-14 0.135E-14 0.491E-14   -.901E-15 -.601E-15 -.780E-15   -.275E-08 -.958E-10 -.827E-09


 POSITION                                       TOTAL-FORCE (eV/Angst)
 -----------------------------------------------------------------------------------
      1.36205      1.36153      1.35984         0.000000      0.000000      0.000000
      1.36205      4.07944      4.07775         0.000000      0.000000      0.000000
      4.07996      1.36154      4.07774         0.000000      0.000000      0.000000
      4.07997      4.07945      6.79565         0.000000      0.000000      0.000000
      4.07995      4.07944      1.35983         0.000000      0.000000      0.000000
      4.07996      6.79734      4.07774         0.000000     -0.000000      0.000000
      6.79787      4.07944      4.07774         0.000000      0.000000      0.000000
      6.79787      6.79735      6.79566         0.000000      0.000000      0.000000
      0.00309      0.00258      0.00088        -0.000000     -0.000000     -0.000000
      0.00310      2.72049      2.71879        -0.000000      0.000000     -0.000000
      2.72101      0.00259      2.71879        -0.000000     -0.000000     -0.000000
      2.72101      2.72050      5.43670        -0.000000     -0.000000     -0.000000
      2.72100      2.72048      0.00088        -0.000000     -0.000000     -0.000000
      2.72100      5.43839      2.71880        -0.000000     -0.000000     -0.000000
      5.43891      2.72050      2.71879        -0.000000     -0.000000     -0.000000
      5.43892      5.43840      5.43670        -0.000000     -0.000000     -0.000000
 -----------------------------------------------------------------------------------
    total drift:                               -0.006339     -0.000198     -0.002019


--------------------------------------------------------------------------------------------------------



  FREE ENERGIE OF THE ION-ELECTRON SYSTEM (eV)
  ---------------------------------------------------
  free  energy   TOTEN  =       -91.94585649 eV

  energy  without entropy=      -91.94585649  energy(sigma->0) =      -91.94585649



--------------------------------------------------------------------------------------------------------


    POTLOK:  cpu time      0.0808: real time      0.0809


--------------------------------------------------------------------------------------------------------




--------------------------------------------------------------------------------------------------------


  
 reached required accuracy - stopping structural energy minimisation
 writing wavefunctions
     LOOP+:  cpu time     23.3641: real time     23.5944
    4ORBIT:  cpu time      0.0000: real time      0.0000



 total charge

# of ion       s       p       d       tot
------------------------------------------
    1        0.752   0.937   0.000   1.689
    2        0.752   0.937   0.000   1.689
    3        0.752   0.937   0.000   1.689
    4        0.752   0.937   0.000   1.689
    5        0.752   0.937   0.000   1.689
    6        0.752   0.937   0.000   1.689
    7        0.752   0.937   0.000   1.689
    8        0.752   0.937   0.000   1.689
    9        0.752   0.937   0.000   1.689
   10        0.752   0.937   0.000   1.689
   11        0.752   0.937   0.000   1.689
   12        0.752   0.937   0.000   1.689
   13        0.752   0.937   0.000   1.689
   14        0.752   0.937   0.000   1.689
   15        0.752   0.937   0.000   1.689
   16        0.752   0.937   0.000   1.689
--------------------------------------------------
tot         12.037  14.985   0.000  27.021


 total amount of memory used by VASP MPI-rank0    36369. kBytes
=======================================================================

   base      :      30000. kBytes
   nonl-proj :        890. kBytes
   fftplans  :       2941. kBytes
   grid      :       1454. kBytes
   one-center:          3. kBytes
   wavefun   :       1081. kBytes

  
  
 General timing and accounting informations for this job:
 ========================================================
  
                  Total CPU time used (sec):       32.698
                            User time (sec):       30.034
                          System time (sec):        2.664
                         Elapsed time (sec):       33.009
  
                   Maximum memory used (kb):      144256.
                   Average memory used (kb):          N/A
  
                          Minor page faults:        84403
                          Major page faults:          552
                 Voluntary context switches:         2455
