PROCAR lm decomposed
# of k-points:   16         # of bands:   48         # of ions:   16

 k-point     1 :    0.00000000 0.00000000 0.00000000     weight = 0.00462963

band     1 # energy   -6.20951970 # occ.  2.00000000

ion      s     py     pz     px    dxy    dyz    dz2    dxz  x2-y2    tot
    1  0.027  0.000  0.000  0.000  0.000  0.000  0.000  0.000  0.000  0.027
    2  0.027  0.000  0.000  0.000  0.000  0.000  0.000  0.000  0.000  0.027
    3  0.027  0.000  0.000  0.000  0.000  0.000  0.000  0.000  0.000  0.027
    4  0.027  0.000  0.000  0.000  0.000  0.000  0.000  0.000  0.000  0.027
    5  0.027  0.000  0.000  0.000  0.000  0.000  0.000  0.000  0.000  0.027
    6  0.027  0.000  0.000  0.000  0.000  0.000  0.000  0.000  0.000  0.027
    7  0.027  0.000  0.000  0.000  0.000  0.000  0.000  0.000  0.000  0.027
    8  0.027  0.000  0.000  0.000  0.000  0.000  0.000  0.000  0.000  0.027
    9  0.027  0.000  0.000  0.000  0.000  0.000  0.000  0.000  0.000  0.027
   10  0.027  0.000  0.000  0.000  0.000  0.000  0.000  0.000  0.000  0.027
   11  0.027  0.000  0.000  0.000  0.000  0.000  0.000  0.000  0.000  0.027
   12  0.027  0.000  0.000  0.000  0.000  0.000  0.000  0.000  0.000  0.027
   13  0.027  0.000  0.000  0.000  0.000  0.000  0.000  0.000  0.000  0.027
   14  0.027  0.000  0.000  0.000  0.000  0.000  0.000  0.000  0.000  0.027
   15  0.027  0.000  0.000  0.000  0.000  0.000  0.000  0.000  0.000  0.027
   16  0.027  0.000  0.000  0.000  0.000  0.000  0.000  0.000  0.000  0.027
tot    0.425  0.000  0.000  0.000  0.000  0.000  0.000  0.000  0.000  0.425

band     2 # energy   -3.86692941 # occ.  2.00000000

ion      s     py     pz     px    dxy    dyz    dz2    dxz  x2-y2    tot
    1  0.025  0.000  0.001  0.000  0.000  0.000  0.000  0.000  0.000  0.027
    2  0.007  0.001  0.000  0.001  0.000  0.000  0.000  0.000  0.000  0.010
    3  0.022  0.001  0.000  0.001  0.000  0.000  0.000  0.000  0.000  0.024
    4  0.058  0.000  0.001  0.000  0.000  0.000  0.000  0.000  0.000  0.059
    5  0.058  0.000  0.001  0.000  0.000  0.000  0.000  0.000  0.000  0.059
    6  0.022  0.001  0.000  0.001  0.000  0.000  0.000  0.000  0.000  0.024
    7  0.007  0.001  0.000  0.001  0.000  0.000  0.000  0.000  0.000  0.010
    8  0.025  0.000  0.001  0.000  0.000  0.000  0.000  0.000  0.000  0.027
    9  0.053  0.000  0.001  0.001  0.000  0.000  0.000  0.000  0.000  0.054
   10  0.025  0.001  0.000  0.001  0.000  0.000  0.000  0.000  0.000  0.027
   11  0.006  0.001  0.001  0.001  0.000  0.000  0.000  0.000  0.000  0.008
   12  0.029  0.001  0.001  0.000  0.000  0.000  0.000  0.000  0.000  0.030
   13  0.029  0.001  0.001  0.000  0.000  0.000  0.000  0.000  0.000  0.030
   14  0.006  0.001  0.001  0.001  0.000  0.000  0.000  0.000  0.000  0.008
   15  0.025  0.001  0.000  0.001  0.000  0.000  0.000  0.000  0.000  0.027
   16  0.053  0.000  0.001  0.001  0.000  0.000  0.000  0.000  0.000  0.054
tot    0.450  0.009  0.009  0.009  0.000  0.000  0.000  0.000  0.000  0.478

band     3 # energy   -3.86692787 # occ.  2.00000000

ion      s     py     pz     px    dxy    dyz    dz2    dxz  x2-y2    tot
    1  0.015  0.000  0.000  0.002  0.000  0.000  0.000  0.000  0.000  0.017
    2  0.087  0.000  0.000  0.000  0.000  0.000  0.000  0.000  0.000  0.087
    3  0.006  0.000  0.002  0.000  0.000  0.000  0.000  0.000  0.000  0.008
    4  0.005  0.002  0.000  0.000  0.000  0.000  0.000  0.000  0.000  0.007
    5  0.005  0.002  0.000  0.000  0.000  0.000  0.000  0.000  0.000  0.007
    6  0.006  0.000  0.002  0.000  0.000  0.000  0.000  0.000  0.000  0.008
    7  0.087  0.000  0.000  0.000  0.000  0.000  0.000  0.000  0.000  0.087
    8  0.015  0.000  0.000  0.002  0.000  0.000  0.000  0.000  0.000  0.017
    9  0.043  0.001  0.000  0.001  0.000  0.000  0.000  0.000  0.000  0.044
   10  0.044  0.000  0.001  0.001  0.000  0.000  0.000  0.000  0.000  0.046
   11  0.025  0.001  0.001  0.000  0.000  0.000  0.000  0.000  0.000  0.027
   12  0.000  0.001  0.001  0.001  0.000  0.000  0.000  0.000  0.000  0.002
   13  0.000  0.001  0.001  0.001  0.000  0.000  0.000  0.000  0.000  0.002
   14  0.025  0.001  0.001  0.000  0.000  0.000  0.000  0.000  0.000  0.027
   15  0.044  0.000  0.001  0.001  0.000  0.000  0.000  0.000  0.000  0.046
   16  0.043  0.001  0.000  0.001  0.000  0.000  0.000  0.000  0.000  0.044
tot    0.450  0.009  0.009  0.009  0.000  0.000  0.000  0.000  0.000  0.478

band     4 # energy   -3.86692521 # occ.  2.00000000

ion      s     py     pz     px    dxy    dyz    dz2    dxz  x2-y2    tot
    1  0.001  0.002  0.000  0.000  0.000  0.000  0.000  0.000  0.000  0.003
    2  0.013  0.000  0.002  0.000  0.000  0.000  0.000  0.000  0.000  0.015
    3  0.085  0.000  0.000  0.000  0.000  0.000  0.000  0.000  0.000  0.085
    4  0.013  0.000  0.000  0.002  0.000  0.000  0.000  0.000  0.000  0.015
    5  0.013  0.000  0.000  0.002  0.000  0.000  0.000  0.000  0.000  0.015
    6  0.085  0.000  0.000  0.000  0.000  0.000  0.000  0.000  0.000  0.085
    7  0.013  0.000  0.002  0.000  0.000  0.000  0.000  0.000  0.000  0.015
    8  0.001  0.002  0.000  0.000  0.000  0.000  0.000  0.000  0.000  0.003
    9  0.017  0.000  0.002  0.000  0.000  0.000  0.000  0.000  0.000  0.019
   10  0.002  0.002  0.000  0.000  0.000  0.000  0.000  0.000  0.000  0.004
   11  0.017  0.000  0.000  0.002  0.000  0.000  0.000  0.000  0.000  0.019
   12  0.077  0.000  0.000  0.000  0.000  0.000  0.000  0.000  0.000  0.078
   13  0.077  0.000  0.000  0.000  0.000  0.000  0.000  0.000  0.000  0.078
   14  0.017  0.000  0.000  0.002  0.000  0.000  0.000  0.000  0.000  0.019
   15  0.002  0.002  0.000  0.000  0.000  0.000  0.000  0.000  0.000  0.004
   16  0.017  0.000  0.002  0.000  0.000  0.000  0.000  0.000  0.000  0.019
tot    0.450  0.009  0.009  0.009  0.000  0.000  0.000  0.000  0.000  0.478

band     5 # energy   -3.86692178 # occ.  2.00000000

ion      s     py     pz     px    dxy    dyz    dz2    dxz  x2-y2    tot
    1  0.071  0.000  0.001  0.000  0.000  0.000  0.000  0.000  0.000  0.072
    2  0.005  0.001  0.000  0.001  0.000  0.000  0.000  0.000  0.000  0.007
    3  0.000  0.001  0.000  0.001  0.000  0.000  0.000  0.000  0.000  0.003
    4  0.036  0.000  0.001  0.000  0.000  0.000  0.000  0.000  0.000  0.038
    5  0.036  0.000  0.001  0.000  0.000  0.000  0.000  0.000  0.000  0.038
    6  0.000  0.001  0.000  0.001  0.000  0.000  0.000  0.000  0.000  0.003
    7  0.005  0.001  0.000  0.001  0.000  0.000  0.000  0.000  0.000  0.007
    8  0.071  0.000  0.001  0.000  0.000  0.000  0.000  0.000  0.000  0.072
    9  0.000  0.001  0.000  0.001  0.000  0.000  0.000  0.000  0.000  0.002
   10  0.041  0.000  0.001  0.000  0.000  0.000  0.000  0.000  0.000  0.043
   11  0.065  0.000  0.001  0.000  0.000  0.000  0.000  0.000  0.000  0.066
   12  0.007  0.001  0.000  0.001  0.000  0.000  0.000  0.000  0.000  0.009
   13  0.007  0.001  0.000  0.001  0.000  0.000  0.000  0.000  0.000  0.009
   14  0.065  0.000  0.001  0.000  0.000  0.000  0.000  0.000  0.000  0.066
   15  0.041  0.000  0.001  0.000  0.000  0.000  0.000  0.000  0.000  0.043
   16  0.000  0.001  0.000  0.001  0.000  0.000  0.000  0.000  0.000  0.002
tot    0.450  0.009  0.009  0.009  0.000  0.000  0.000  0.000  0.000  0.478

band     6 # energy   -2.05896321 # occ.  2.00000000

ion      s     py     pz     px    dxy    dyz    dz2    dxz  x2-y2    tot
    1  0.007  0.000  0.001  0.000  0.000  0.000  0.000  0.000  0.000  0.007
    2  0.051  0.000  0.001  0.000  0.000  0.000  0.000  0.000  0.000  0.052
    3  0.027  0.000  0.001  0.000  0.000  0.000  0.000  0.000  0.000  0.027
    4  0.095  0.000  0.001  0.000  0.000  0.000  0.000  0.000  0.000  0.095
    5  0.095  0.000  0.001  0.000  0.000  0.000  0.000  0.000  0.000  0.095
    6  0.027  0.000  0.001  0.000  0.000  0.000  0.000  0.000  0.000  0.027
    7  0.051  0.000  0.001  0.000  0.000  0.000  0.000  0.000  0.000  0.052
    8  0.007  0.000  0.001  0.000  0.000  0.000  0.000  0.000  0.000  0.007
    9  0.001  0.000  0.009  0.001  0.000  0.000  0.000  0.000  0.000  0.011
   10  0.001  0.000  0.009  0.001  0.000  0.000  0.000  0.000  0.000  0.011
   11  0.006  0.000  0.009  0.001  0.000  0.000  0.000  0.000  0.000  0.016
   12  0.007  0.000  0.009  0.001  0.000  0.000  0.000  0.000  0.000  0.017
   13  0.007  0.000  0.009  0.001  0.000  0.000  0.000  0.000  0.000  0.017
   14  0.006  0.000  0.009  0.001  0.000  0.000  0.000  0.000  0.000  0.016
   15  0.001  0.000  0.009  0.001  0.000  0.000  0.000  0.000  0.000  0.011
   16  0.001  0.000  0.009  0.001  0.000  0.000  0.000  0.000  0.000  0.011
tot    0.386  0.004  0.077  0.010  0.000  0.000  0.000  0.000  0.000  0.477

band     7 # energy   -2.05896189 # occ.  2.00000000

ion      s     py     pz     px    dxy    dyz    dz2    dxz  x2-y2    tot
    1  0.000  0.000  0.000  0.000  0.000  0.000  0.000  0.000  0.000  0.000
    2  0.088  0.000  0.000  0.000  0.000  0.000  0.000  0.000  0.000  0.088
    3  0.102  0.000  0.000  0.000  0.000  0.000  0.000  0.000  0.000  0.102
    4  0.001  0.000  0.000  0.000  0.000  0.000  0.000  0.000  0.000  0.001
    5  0.001  0.000  0.000  0.000  0.000  0.000  0.000  0.000  0.000  0.001
    6  0.102  0.000  0.000  0.000  0.000  0.000  0.000  0.000  0.000  0.102
    7  0.088  0.000  0.000  0.000  0.000  0.000  0.000  0.000  0.000  0.088
    8  0.000  0.000  0.000  0.000  0.000  0.000  0.000  0.000  0.000  0.000
    9  0.000  0.007  0.000  0.005  0.000  0.000  0.000  0.000  0.000  0.011
   10  0.000  0.007  0.000  0.005  0.000  0.000  0.000  0.000  0.000  0.011
   11  0.001  0.007  0.000  0.005  0.000  0.000  0.000  0.000  0.000  0.012
   12  0.001  0.007  0.000  0.005  0.000  0.000  0.000  0.000  0.000  0.012
   13  0.001  0.007  0.000  0.005  0.000  0.000  0.000  0.000  0.000  0.012
   14  0.001  0.007  0.000  0.005  0.000  0.000  0.000  0.000  0.000  0.012
   15  0.000  0.007  0.000  0.005  0.000  0.000  0.000  0.000  0.000  0.011
   16  0.000  0.007  0.000  0.005  0.000  0.000  0.000  0.000  0.000  0.011
tot    0.386  0.052  0.001  0.038  0.000  0.000  0.000  0.000  0.000  0.477

band     8 # energy   -2.05895962 # occ.  2.00000000

ion      s     py     pz     px    dxy    dyz    dz2    dxz  x2-y2    tot
    1  0.135  0.000  0.000  0.000  0.000  0.000  0.000  0.000  0.000  0.135
    2  0.004  0.000  0.000  0.000  0.000  0.000  0.000  0.000  0.000  0.004
    3  0.009  0.000  0.000  0.000  0.000  0.000  0.000  0.000  0.000  0.009
    4  0.043  0.000  0.000  0.000  0.000  0.000  0.000  0.000  0.000  0.043
    5  0.043  0.000  0.000  0.000  0.000  0.000  0.000  0.000  0.000  0.043
    6  0.009  0.000  0.000  0.000  0.000  0.000  0.000  0.000  0.000  0.009
    7  0.004  0.000  0.000  0.000  0.000  0.000  0.000  0.000  0.000  0.004
    8  0.135  0.000  0.000  0.000  0.000  0.000  0.000  0.000  0.000  0.135
    9  0.001  0.004  0.002  0.005  0.000  0.000  0.000  0.000  0.000  0.012
   10  0.001  0.004  0.002  0.005  0.000  0.000  0.000  0.000  0.000  0.012
   11  0.000  0.004  0.002  0.005  0.000  0.000  0.000  0.000  0.000  0.011
   12  0.000  0.004  0.002  0.005  0.000  0.000  0.000  0.000  0.000  0.011
   13  0.000  0.004  0.002  0.005  0.000  0.000  0.000  0.000  0.000  0.011
   14  0.000  0.004  0.002  0.005  0.000  0.000  0.000  0.000  0.000  0.011
   15  0.001  0.004  0.002  0.005  0.000  0.000  0.000  0.000  0.000  0.012
   16  0.001  0.004  0.002  0.005  0.000  0.000  0.000  0.000  0.000  0.012
tot    0.386  0.035  0.013  0.043  0.000  0.000  0.000  0.000  0.000  0.477

band     9 # energy   -2.05894413 # occ.  2.00000000

ion      s     py     pz     px    dxy    dyz    dz2    dxz  x2-y2    tot
    1  0.001  0.006  0.002  0.003  0.000  0.000  0.000  0.000  0.000  0.012
    2  0.000  0.006  0.002  0.003  0.000  0.000  0.000  0.000  0.000  0.012
    3  0.000  0.006  0.002  0.003  0.000  0.000  0.000  0.000  0.000  0.011
    4  0.000  0.006  0.002  0.003  0.000  0.000  0.000  0.000  0.000  0.011
    5  0.000  0.006  0.002  0.003  0.000  0.000  0.000  0.000  0.000  0.011
    6  0.000  0.006  0.002  0.003  0.000  0.000  0.000  0.000  0.000  0.011
    7  0.000  0.006  0.002  0.003  0.000  0.000  0.000  0.000  0.000  0.012
    8  0.001  0.006  0.002  0.003  0.000  0.000  0.000  0.000  0.000  0.012
    9  0.138  0.000  0.000  0.000  0.000  0.000  0.000  0.000  0.000  0.138
   10  0.017  0.000  0.000  0.000  0.000  0.000  0.000  0.000  0.000  0.017
   11  0.003  0.000  0.000  0.000  0.000  0.000  0.000  0.000  0.000  0.003
   12  0.033  0.000  0.000  0.000  0.000  0.000  0.000  0.000  0.000  0.033
   13  0.033  0.000  0.000  0.000  0.000  0.000  0.000  0.000  0.000  0.033
   14  0.003  0.000  0.000  0.000  0.000  0.000  0.000  0.000  0.000  0.003
   15  0.017  0.000  0.000  0.000  0.000  0.000  0.000  0.000  0.000  0.017
   16  0.138  0.000  0.000  0.000  0.000  0.000  0.000  0.000  0.000  0.138
tot    0.386  0.046  0.017  0.027  0.000  0.000  0.000  0.000  0.000  0.477

band    10 # energy   -2.05894156 # occ.  2.00000000

ion      s     py     pz     px    dxy    dyz    dz2    dxz  x2-y2    tot
    1  0.001  0.001  0.003  0.007  0.000  0.000  0.000  0.000  0.000  0.013
    2  0.001  0.001  0.003  0.007  0.000  0.000  0.000  0.000  0.000  0.012
    3  0.001  0.001  0.003  0.007  0.000  0.000  0.000  0.000  0.000  0.012
    4  0.000  0.001  0.003  0.007  0.000  0.000  0.000  0.000  0.000  0.011
    5  0.000  0.001  0.003  0.007  0.000  0.000  0.000  0.000  0.000  0.011
    6  0.001  0.001  0.003  0.007  0.000  0.000  0.000  0.000  0.000  0.012
    7  0.001  0.001  0.003  0.007  0.000  0.000  0.000  0.000  0.000  0.012
    8  0.001  0.001  0.003  0.007  0.000  0.000  0.000  0.000  0.000  0.013
    9  0.000  0.000  0.000  0.000  0.000  0.000  0.000  0.000  0.000  0.000
   10  0.124  0.000  0.000  0.000  0.000  0.000  0.000  0.000  0.000  0.125
   11  0.019  0.000  0.000  0.000  0.000  0.000  0.000  0.000  0.000  0.019
   12  0.047  0.000  0.000  0.000  0.000  0.000  0.000  0.000  0.000  0.047
   13  0.047  0.000  0.000  0.000  0.000  0.000  0.000  0.000  0.000  0.047
   14  0.019  0.000  0.000  0.000  0.000  0.000  0.000  0.000  0.000  0.019
   15  0.124  0.000  0.000  0.000  0.000  0.000  0.000  0.000  0.000  0.125
   16  0.000  0.000  0.000  0.000  0.000  0.000  0.000  0.000  0.000  0.000
tot    0.386  0.009  0.023  0.059  0.000  0.000  0.000  0.000  0.000  0.477

band    11 # energy   -2.05893896 # occ.  2.00000000

ion      s     py     pz     px    dxy    dyz    dz2    dxz  x2-y2    tot
    1  0.001  0.004  0.006  0.001  0.000  0.000  0.000  0.000  0.000  0.012
    2  0.001  0.004  0.006  0.001  0.000  0.000  0.000  0.000  0.000  0.012
    3  0.006  0.004  0.006  0.001  0.000  0.000  0.000  0.000  0.000  0.016
    4  0.006  0.004  0.006  0.001  0.000  0.000  0.000  0.000  0.000  0.016
    5  0.006  0.004  0.006  0.001  0.000  0.000  0.000  0.000  0.000  0.016
    6  0.006  0.004  0.006  0.001  0.000  0.000  0.000  0.000  0.000  0.016
    7  0.001  0.004  0.006  0.001  0.000  0.000  0.000  0.000  0.000  0.012
    8  0.001  0.004  0.006  0.001  0.000  0.000  0.000  0.000  0.000  0.012
    9  0.005  0.000  0.001  0.000  0.000  0.000  0.000  0.000  0.000  0.006
   10  0.001  0.000  0.001  0.000  0.000  0.000  0.000  0.000  0.000  0.002
   11  0.116  0.000  0.001  0.000  0.000  0.000  0.000  0.000  0.000  0.117
   12  0.057  0.000  0.001  0.000  0.000  0.000  0.000  0.000  0.000  0.058
   13  0.057  0.000  0.001  0.000  0.000  0.000  0.000  0.000  0.000  0.058
   14  0.116  0.000  0.001  0.000  0.000  0.000  0.000  0.000  0.000  0.117
   15  0.001  0.000  0.001  0.000  0.000  0.000  0.000  0.000  0.000  0.002
   16  0.005  0.000  0.001  0.000  0.000  0.000  0.000  0.000  0.000  0.006
tot    0.386  0.035  0.051  0.005  0.000  0.000  0.000  0.000  0.000  0.477

band    12 # energy   -1.24033778 # occ.  2.00000000

ion      s     py     pz     px    dxy    dyz    dz2    dxz  x2-y2    tot
    1  0.021  0.002  0.005  0.002  0.000  0.000  0.000  0.000  0.000  0.030
    2  0.006  0.005  0.002  0.007  0.000  0.000  0.000  0.000  0.000  0.020
    3  0.006  0.007  0.002  0.005  0.000  0.000  0.000  0.000  0.000  0.019
    4  0.016  0.002  0.007  0.002  0.000  0.000  0.000  0.000  0.000  0.026
    5  0.016  0.002  0.007  0.002  0.000  0.000  0.000  0.000  0.000  0.026
    6  0.006  0.007  0.002  0.005  0.000  0.000  0.000  0.000  0.000  0.019
    7  0.006  0.005  0.002  0.007  0.000  0.000  0.000  0.000  0.000  0.020
    8  0.021  0.002  0.005  0.002  0.000  0.000  0.000  0.000  0.000  0.030
    9  0.005  0.006  0.002  0.006  0.000  0.000  0.000  0.000  0.000  0.019
   10  0.018  0.002  0.006  0.001  0.000  0.000  0.000  0.000  0.000  0.028
   11  0.019  0.001  0.006  0.002  0.000  0.000  0.000  0.000  0.000  0.028
   12  0.007  0.006  0.001  0.006  0.000  0.000  0.000  0.000  0.000  0.021
   13  0.007  0.006  0.001  0.006  0.000  0.000  0.000  0.000  0.000  0.021
   14  0.019  0.001  0.006  0.002  0.000  0.000  0.000  0.000  0.000  0.028
   15  0.018  0.002  0.006  0.001  0.000  0.000  0.000  0.000  0.000  0.028
   16  0.005  0.006  0.002  0.006  0.000  0.000  0.000  0.000  0.000  0.019
tot    0.194  0.062  0.062  0.062  0.000  0.000  0.000  0.000  0.000  0.382

band    13 # energy   -1.24033462 # occ.  2.00000000

ion      s     py     pz     px    dxy    dyz    dz2    dxz  x2-y2    tot
    1  0.005  0.007  0.002  0.005  0.000  0.000  0.000  0.000  0.000  0.019
    2  0.015  0.002  0.007  0.002  0.000  0.000  0.000  0.000  0.000  0.026
    3  0.022  0.002  0.005  0.002  0.000  0.000  0.000  0.000  0.000  0.030
    4  0.007  0.005  0.002  0.007  0.000  0.000  0.000  0.000  0.000  0.020
    5  0.007  0.005  0.002  0.007  0.000  0.000  0.000  0.000  0.000  0.020
    6  0.022  0.002  0.005  0.002  0.000  0.000  0.000  0.000  0.000  0.030
    7  0.015  0.002  0.007  0.002  0.000  0.000  0.000  0.000  0.000  0.026
    8  0.005  0.007  0.002  0.005  0.000  0.000  0.000  0.000  0.000  0.019
    9  0.016  0.003  0.006  0.001  0.000  0.000  0.000  0.000  0.000  0.027
   10  0.004  0.006  0.003  0.005  0.000  0.000  0.000  0.000  0.000  0.018
   11  0.008  0.005  0.001  0.006  0.000  0.000  0.000  0.000  0.000  0.021
   12  0.020  0.001  0.005  0.003  0.000  0.000  0.000  0.000  0.000  0.029
   13  0.020  0.001  0.005  0.003  0.000  0.000  0.000  0.000  0.000  0.029
   14  0.008  0.005  0.001  0.006  0.000  0.000  0.000  0.000  0.000  0.021
   15  0.004  0.006  0.003  0.005  0.000  0.000  0.000  0.000  0.000  0.018
   16  0.016  0.003  0.006  0.001  0.000  0.000  0.000  0.000  0.000  0.027
tot    0.194  0.062  0.062  0.062  0.000  0.000  0.000  0.000  0.000  0.382

band    14 # energy   -1.24032904 # occ.  2.00000000

ion      s     py     pz     px    dxy    dyz    dz2    dxz  x2-y2    tot
    1  0.011  0.003  0.003  0.005  0.000  0.000  0.000  0.000  0.000  0.023
    2  0.017  0.003  0.003  0.004  0.000  0.000  0.000  0.000  0.000  0.027
    3  0.010  0.004  0.005  0.003  0.000  0.000  0.000  0.000  0.000  0.023
    4  0.010  0.005  0.004  0.003  0.000  0.000  0.000  0.000  0.000  0.023
    5  0.010  0.005  0.004  0.003  0.000  0.000  0.000  0.000  0.000  0.023
    6  0.010  0.004  0.005  0.003  0.000  0.000  0.000  0.000  0.000  0.023
    7  0.017  0.003  0.003  0.004  0.000  0.000  0.000  0.000  0.000  0.027
    8  0.011  0.003  0.003  0.005  0.000  0.000  0.000  0.000  0.000  0.023
    9  0.014  0.004  0.003  0.004  0.000  0.000  0.000  0.000  0.000  0.025
   10  0.014  0.003  0.004  0.004  0.000  0.000  0.000  0.000  0.000  0.025
   11  0.013  0.004  0.004  0.003  0.000  0.000  0.000  0.000  0.000  0.024
   12  0.008  0.004  0.004  0.004  0.000  0.000  0.000  0.000  0.000  0.021
   13  0.008  0.004  0.004  0.004  0.000  0.000  0.000  0.000  0.000  0.021
   14  0.013  0.004  0.004  0.003  0.000  0.000  0.000  0.000  0.000  0.024
   15  0.014  0.003  0.004  0.004  0.000  0.000  0.000  0.000  0.000  0.025
   16  0.014  0.004  0.003  0.004  0.000  0.000  0.000  0.000  0.000  0.025
tot    0.194  0.062  0.062  0.062  0.000  0.000  0.000  0.000  0.000  0.382

band    15 # energy   -1.24032553 # occ.  2.00000000

ion      s     py     pz     px    dxy    dyz    dz2    dxz  x2-y2    tot
    1  0.011  0.004  0.005  0.003  0.000  0.000  0.000  0.000  0.000  0.023
    2  0.011  0.005  0.004  0.004  0.000  0.000  0.000  0.000  0.000  0.023
    3  0.011  0.004  0.003  0.005  0.000  0.000  0.000  0.000  0.000  0.023
    4  0.015  0.003  0.004  0.004  0.000  0.000  0.000  0.000  0.000  0.026
    5  0.015  0.003  0.004  0.004  0.000  0.000  0.000  0.000  0.000  0.026
    6  0.011  0.004  0.003  0.005  0.000  0.000  0.000  0.000  0.000  0.023
    7  0.011  0.005  0.004  0.004  0.000  0.000  0.000  0.000  0.000  0.023
    8  0.011  0.004  0.005  0.003  0.000  0.000  0.000  0.000  0.000  0.023
    9  0.014  0.003  0.004  0.004  0.000  0.000  0.000  0.000  0.000  0.025
   10  0.013  0.004  0.003  0.004  0.000  0.000  0.000  0.000  0.000  0.024
   11  0.009  0.004  0.004  0.004  0.000  0.000  0.000  0.000  0.000  0.022
   12  0.013  0.004  0.004  0.003  0.000  0.000  0.000  0.000  0.000  0.024
   13  0.013  0.004  0.004  0.003  0.000  0.000  0.000  0.000  0.000  0.024
   14  0.009  0.004  0.004  0.004  0.000  0.000  0.000  0.000  0.000  0.022
   15  0.013  0.004  0.003  0.004  0.000  0.000  0.000  0.000  0.000  0.024
   16  0.014  0.003  0.004  0.004  0.000  0.000  0.000  0.000  0.000  0.025
tot    0.194  0.062  0.062  0.062  0.000  0.000  0.000  0.000  0.000  0.382

band    16 # energy    2.89443346 # occ.  2.00000000

ion      s     py     pz     px    dxy    dyz    dz2    dxz  x2-y2    tot
    1  0.000  0.009  0.000  0.007  0.000  0.000  0.000  0.000  0.000  0.016
    2  0.000  0.017  0.000  0.007  0.000  0.000  0.000  0.000  0.000  0.025
    3  0.000  0.009  0.000  0.016  0.000  0.000  0.000  0.000  0.000  0.025
    4  0.000  0.017  0.000  0.016  0.000  0.000  0.000  0.000  0.000  0.033
    5  0.000  0.017  0.000  0.016  0.000  0.000  0.000  0.000  0.000  0.033
    6  0.000  0.009  0.000  0.016  0.000  0.000  0.000  0.000  0.000  0.025
    7  0.000  0.017  0.000  0.007  0.000  0.000  0.000  0.000  0.000  0.025
    8  0.000  0.009  0.000  0.007  0.000  0.000  0.000  0.000  0.000  0.016
    9  0.000  0.011  0.002  0.011  0.000  0.000  0.000  0.000  0.000  0.024
   10  0.000  0.011  0.000  0.011  0.000  0.000  0.000  0.000  0.000  0.022
   11  0.000  0.011  0.000  0.014  0.000  0.000  0.000  0.000  0.000  0.026
   12  0.000  0.011  0.002  0.014  0.000  0.000  0.000  0.000  0.000  0.027
   13  0.000  0.011  0.002  0.014  0.000  0.000  0.000  0.000  0.000  0.027
   14  0.000  0.011  0.000  0.014  0.000  0.000  0.000  0.000  0.000  0.026
   15  0.000  0.011  0.000  0.011  0.000  0.000  0.000  0.000  0.000  0.022
   16  0.000  0.011  0.002  0.011  0.000  0.000  0.000  0.000  0.000  0.024
tot    0.000  0.193  0.007  0.194  0.000  0.000  0.000  0.000  0.000  0.394

band    17 # energy    2.89443529 # occ.  2.00000000

ion      s     py     pz     px    dxy    dyz    dz2    dxz  x2-y2    tot
    1  0.000  0.004  0.006  0.009  0.000  0.000  0.000  0.000  0.000  0.019
    2  0.000  0.000  0.022  0.009  0.000  0.000  0.000  0.000  0.000  0.031
    3  0.000  0.004  0.022  0.008  0.000  0.000  0.000  0.000  0.000  0.034
    4  0.000  0.000  0.006  0.008  0.000  0.000  0.000  0.000  0.000  0.014
    5  0.000  0.000  0.006  0.008  0.000  0.000  0.000  0.000  0.000  0.014
    6  0.000  0.004  0.022  0.008  0.000  0.000  0.000  0.000  0.000  0.034
    7  0.000  0.000  0.022  0.009  0.000  0.000  0.000  0.000  0.000  0.031
    8  0.000  0.004  0.006  0.009  0.000  0.000  0.000  0.000  0.000  0.019
    9  0.000  0.001  0.016  0.020  0.000  0.000  0.000  0.000  0.000  0.037
   10  0.000  0.001  0.004  0.020  0.000  0.000  0.000  0.000  0.000  0.025
   11  0.000  0.001  0.004  0.007  0.000  0.000  0.000  0.000  0.000  0.012
   12  0.000  0.001  0.016  0.007  0.000  0.000  0.000  0.000  0.000  0.025
   13  0.000  0.001  0.016  0.007  0.000  0.000  0.000  0.000  0.000  0.025
   14  0.000  0.001  0.004  0.007  0.000  0.000  0.000  0.000  0.000  0.012
   15  0.000  0.001  0.004  0.020  0.000  0.000  0.000  0.000  0.000  0.025
   16  0.000  0.001  0.016  0.020  0.000  0.000  0.000  0.000  0.000  0.037
tot    0.000  0.025  0.191  0.179  0.000  0.000  0.000  0.000  0.000  0.394

band    18 # energy    2.89443624 # occ.  2.00000000

ion      s     py     pz     px    dxy    dyz    dz2    dxz  x2-y2    tot
    1  0.000  0.013  0.000  0.007  0.000  0.000  0.000  0.000  0.000  0.020
    2  0.000  0.017  0.012  0.007  0.000  0.000  0.000  0.000  0.000  0.036
    3  0.000  0.013  0.012  0.000  0.000  0.000  0.000  0.000  0.000  0.025
    4  0.000  0.017  0.000  0.000  0.000  0.000  0.000  0.000  0.000  0.018
    5  0.000  0.017  0.000  0.000  0.000  0.000  0.000  0.000  0.000  0.018
    6  0.000  0.013  0.012  0.000  0.000  0.000  0.000  0.000  0.000  0.025
    7  0.000  0.017  0.012  0.007  0.000  0.000  0.000  0.000  0.000  0.036
    8  0.000  0.013  0.000  0.007  0.000  0.000  0.000  0.000  0.000  0.020
    9  0.000  0.007  0.029  0.005  0.000  0.000  0.000  0.000  0.000  0.041
   10  0.000  0.000  0.006  0.005  0.000  0.000  0.000  0.000  0.000  0.010
   11  0.000  0.007  0.006  0.002  0.000  0.000  0.000  0.000  0.000  0.016
   12  0.000  0.000  0.029  0.002  0.000  0.000  0.000  0.000  0.000  0.032
   13  0.000  0.000  0.029  0.002  0.000  0.000  0.000  0.000  0.000  0.032
   14  0.000  0.007  0.006  0.002  0.000  0.000  0.000  0.000  0.000  0.016
   15  0.000  0.000  0.006  0.005  0.000  0.000  0.000  0.000  0.000  0.010
   16  0.000  0.007  0.029  0.005  0.000  0.000  0.000  0.000  0.000  0.041
tot    0.000  0.152  0.186  0.056  0.000  0.000  0.000  0.000  0.000  0.394

band    19 # energy    2.89443651 # occ.  2.00000000

ion      s     py     pz     px    dxy    dyz    dz2    dxz  x2-y2    tot
    1  0.000  0.002  0.027  0.001  0.000  0.000  0.000  0.000  0.000  0.030
    2  0.000  0.004  0.013  0.001  0.000  0.000  0.000  0.000  0.000  0.018
    3  0.000  0.002  0.013  0.002  0.000  0.000  0.000  0.000  0.000  0.017
    4  0.000  0.004  0.027  0.002  0.000  0.000  0.000  0.000  0.000  0.033
    5  0.000  0.004  0.027  0.002  0.000  0.000  0.000  0.000  0.000  0.033
    6  0.000  0.002  0.013  0.002  0.000  0.000  0.000  0.000  0.000  0.017
    7  0.000  0.004  0.013  0.001  0.000  0.000  0.000  0.000  0.000  0.018
    8  0.000  0.002  0.027  0.001  0.000  0.000  0.000  0.000  0.000  0.030
    9  0.000  0.017  0.000  0.001  0.000  0.000  0.000  0.000  0.000  0.019
   10  0.000  0.021  0.009  0.001  0.000  0.000  0.000  0.000  0.000  0.031
   11  0.000  0.017  0.009  0.000  0.000  0.000  0.000  0.000  0.000  0.027
   12  0.000  0.021  0.000  0.000  0.000  0.000  0.000  0.000  0.000  0.022
   13  0.000  0.021  0.000  0.000  0.000  0.000  0.000  0.000  0.000  0.022
   14  0.000  0.017  0.009  0.000  0.000  0.000  0.000  0.000  0.000  0.027
   15  0.000  0.021  0.009  0.001  0.000  0.000  0.000  0.000  0.000  0.031
   16  0.000  0.017  0.000  0.001  0.000  0.000  0.000  0.000  0.000  0.019
tot    0.000  0.180  0.196  0.018  0.000  0.000  0.000  0.000  0.000  0.394

band    20 # energy    2.89443781 # occ.  2.00000000

ion      s     py     pz     px    dxy    dyz    dz2    dxz  x2-y2    tot
    1  0.000  0.008  0.014  0.017  0.000  0.000  0.000  0.000  0.000  0.038
    2  0.000  0.002  0.001  0.017  0.000  0.000  0.000  0.000  0.000  0.020
    3  0.000  0.008  0.001  0.007  0.000  0.000  0.000  0.000  0.000  0.016
    4  0.000  0.002  0.014  0.007  0.000  0.000  0.000  0.000  0.000  0.024
    5  0.000  0.002  0.014  0.007  0.000  0.000  0.000  0.000  0.000  0.024
    6  0.000  0.008  0.001  0.007  0.000  0.000  0.000  0.000  0.000  0.016
    7  0.000  0.002  0.001  0.017  0.000  0.000  0.000  0.000  0.000  0.020
    8  0.000  0.008  0.014  0.017  0.000  0.000  0.000  0.000  0.000  0.038
    9  0.000  0.000  0.001  0.009  0.000  0.000  0.000  0.000  0.000  0.011
   10  0.000  0.004  0.031  0.009  0.000  0.000  0.000  0.000  0.000  0.044
   11  0.000  0.000  0.031  0.003  0.000  0.000  0.000  0.000  0.000  0.034
   12  0.000  0.004  0.001  0.003  0.000  0.000  0.000  0.000  0.000  0.009
   13  0.000  0.004  0.001  0.003  0.000  0.000  0.000  0.000  0.000  0.009
   14  0.000  0.000  0.031  0.003  0.000  0.000  0.000  0.000  0.000  0.034
   15  0.000  0.004  0.031  0.009  0.000  0.000  0.000  0.000  0.000  0.044
   16  0.000  0.000  0.001  0.009  0.000  0.000  0.000  0.000  0.000  0.011
tot    0.000  0.058  0.190  0.145  0.000  0.000  0.000  0.000  0.000  0.394

band    21 # energy    2.89443979 # occ.  2.00000000

ion      s     py     pz     px    dxy    dyz    dz2    dxz  x2-y2    tot
    1  0.000  0.014  0.002  0.008  0.000  0.000  0.000  0.000  0.000  0.024
    2  0.000  0.008  0.002  0.008  0.000  0.000  0.000  0.000  0.000  0.018
    3  0.000  0.014  0.002  0.016  0.000  0.000  0.000  0.000  0.000  0.031
    4  0.000  0.008  0.002  0.016  0.000  0.000  0.000  0.000  0.000  0.026
    5  0.000  0.008  0.002  0.016  0.000  0.000  0.000  0.000  0.000  0.026
    6  0.000  0.014  0.002  0.016  0.000  0.000  0.000  0.000  0.000  0.031
    7  0.000  0.008  0.002  0.008  0.000  0.000  0.000  0.000  0.000  0.018
    8  0.000  0.014  0.002  0.008  0.000  0.000  0.000  0.000  0.000  0.024
    9  0.000  0.012  0.001  0.004  0.000  0.000  0.000  0.000  0.000  0.017
   10  0.000  0.011  0.000  0.004  0.000  0.000  0.000  0.000  0.000  0.015
   11  0.000  0.012  0.000  0.022  0.000  0.000  0.000  0.000  0.000  0.034
   12  0.000  0.011  0.001  0.022  0.000  0.000  0.000  0.000  0.000  0.034
   13  0.000  0.011  0.001  0.022  0.000  0.000  0.000  0.000  0.000  0.034
   14  0.000  0.012  0.000  0.022  0.000  0.000  0.000  0.000  0.000  0.034
   15  0.000  0.011  0.000  0.004  0.000  0.000  0.000  0.000  0.000  0.015
   16  0.000  0.012  0.001  0.004  0.000  0.000  0.000  0.000  0.000  0.017