       N       E                     dE             d eps       ncg     rms          rms(c)
DAV:   1     0.188212373233E+04    0.18821E+04   -0.73981E+04 21504   0.185E+03
DAV:   2     0.211854616024E+03   -0.16703E+04   -0.16266E+04 21528   0.482E+02
DAV:   3    -0.462909962956E+02   -0.25815E+03   -0.24470E+03 26184   0.215E+02
DAV:   4    -0.660057646496E+02   -0.19715E+02   -0.19341E+02 26088   0.572E+01
DAV:   5    -0.669120828949E+02   -0.90632E+00   -0.90314E+00 26360   0.115E+01    0.102E+01
RMM:   6    -0.660913937683E+02    0.82069E+00   -0.15247E+00 21827   0.371E+00    0.592E+00
RMM:   7    -0.660997726070E+02   -0.83788E-02   -0.19233E+00 22983   0.302E+00    0.146E+00
RMM:   8    -0.660699855253E+02    0.29787E-01   -0.40210E-01 22148   0.382E+00    0.461E-01
RMM:   9    -0.660578744155E+02    0.12111E-01   -0.85536E-02 24510   0.175E+00    0.309E-01
RMM:  10    -0.660604882304E+02   -0.26138E-02   -0.29046E-02 25645   0.696E-01    0.206E-01
RMM:  11    -0.660612876505E+02   -0.79942E-03   -0.49468E-03 28918   0.267E-01    0.252E-01
RMM:  12    -0.660608939275E+02    0.39372E-03   -0.79607E-04 27927   0.125E-01    0.271E-01
RMM:  13    -0.660597974684E+02    0.10965E-02   -0.36638E-03 23969   0.285E-01    0.297E-01
RMM:  14    -0.660595660887E+02    0.23138E-03   -0.13032E-03 22466   0.103E-01    0.173E-01
RMM:  15    -0.660595724385E+02   -0.63498E-05   -0.26747E-04 28044   0.526E-02    0.146E-01
RMM:  16    -0.660595823796E+02   -0.99412E-05   -0.33211E-05 25519   0.213E-02    0.157E-01
RMM:  17    -0.660595574248E+02    0.24955E-04   -0.20625E-05 22699   0.265E-02    0.129E-01
RMM:  18    -0.660595284869E+02    0.28938E-04   -0.81396E-05 23638   0.390E-02    0.736E-02
RMM:  19    -0.660595263983E+02    0.20887E-05   -0.24010E-05 24500   0.169E-02    0.524E-02
RMM:  20    -0.660595218960E+02    0.45023E-05   -0.78003E-06 22359   0.191E-02    0.341E-02
RMM:  21    -0.660595181345E+02    0.37615E-05   -0.71759E-06 21602   0.739E-03    0.141E-02
RMM:  22    -0.660595192645E+02   -0.11300E-05   -0.23202E-06 27137   0.778E-03    0.892E-03
RMM:  23    -0.660595201477E+02   -0.88314E-06   -0.37825E-07 24179   0.277E-03    0.514E-03
RMM:  24    -0.660595206466E+02   -0.49896E-06   -0.12905E-07 22915   0.192E-03    0.225E-03
RMM:  25    -0.660595206226E+02    0.24049E-07   -0.21227E-07 21037   0.238E-03    0.171E-03
RMM:  26    -0.660595207916E+02   -0.16898E-06   -0.39263E-08 15560   0.757E-04    0.104E-03
RMM:  27    -0.660595208561E+02   -0.64503E-07   -0.83858E-09 12544   0.551E-04    0.736E-04
RMM:  28    -0.660595209092E+02   -0.53116E-07   -0.10671E-08 12642   0.440E-04    0.287E-04
RMM:  29    -0.660595208950E+02    0.14223E-07   -0.64265E-09 12355   0.374E-04    0.272E-04
RMM:  30    -0.660595209019E+02   -0.68994E-08   -0.37705E-09 12144   0.337E-04
   1 F= -.66059521E+02 E0= -.66059521E+02  d E =-.660595E+02
       N       E                     dE             d eps       ncg     rms          rms(c)
DAV:   1    -0.660598505027E+02   -0.32961E-03   -0.19614E-01 24328   0.116E+00    0.477E-02
RMM:   2    -0.660600680017E+02   -0.21750E-03   -0.24597E-03 24424   0.246E-01    0.240E-02
RMM:   3    -0.660601650337E+02   -0.97032E-04   -0.10255E-03 28672   0.152E-01    0.134E-02
RMM:   4    -0.660601704453E+02   -0.54116E-05   -0.75739E-05 26984   0.350E-02    0.116E-02
RMM:   5    -0.660601710678E+02   -0.62245E-06   -0.15756E-05 27263   0.156E-02    0.579E-03
RMM:   6    -0.660601711690E+02   -0.10122E-06   -0.18098E-06 26683   0.549E-03    0.136E-03
RMM:   7    -0.660601712532E+02   -0.84230E-07   -0.54861E-07 27230   0.299E-03    0.979E-04
RMM:   8    -0.660601712789E+02   -0.25686E-07   -0.11040E-07 21867   0.141E-03    0.738E-04
RMM:   9    -0.660601712625E+02    0.16387E-07   -0.20674E-08 12866   0.802E-04    0.464E-04
RMM:  10    -0.660601712711E+02   -0.85711E-08   -0.11169E-08 12586   0.629E-04
   2 F= -.66060171E+02 E0= -.66060171E+02  d E =-.650369E-03
       N       E                     dE             d eps       ncg     rms          rms(c)
DAV:   1    -0.660581002020E+02    0.20711E-02   -0.15606E+00 24328   0.328E+00    0.148E-01
RMM:   2    -0.660598824028E+02   -0.17822E-02   -0.20962E-02 24388   0.867E-01    0.783E-02
RMM:   3    -0.660608798394E+02   -0.99744E-03   -0.10807E-02 28543   0.464E-01    0.422E-02
RMM:   4    -0.660609595839E+02   -0.79744E-04   -0.98079E-04 31549   0.125E-01    0.344E-02
RMM:   5    -0.660609641328E+02   -0.45489E-05   -0.11128E-04 27851   0.455E-02    0.165E-02
RMM:   6    -0.660609649077E+02   -0.77499E-06   -0.17413E-05 22796   0.222E-02    0.424E-03
RMM:   7    -0.660609657886E+02   -0.88090E-06   -0.10313E-05 31105   0.127E-02    0.370E-03
RMM:   8    -0.660609658300E+02   -0.41351E-07   -0.99555E-07 26661   0.413E-03    0.315E-03
RMM:   9    -0.660609659284E+02   -0.98407E-07   -0.21450E-07 28654   0.201E-03    0.276E-03
RMM:  10    -0.660609659299E+02   -0.15116E-08   -0.16623E-07 21934   0.198E-03    0.978E-04
RMM:  11    -0.660609658986E+02    0.31310E-07   -0.69523E-08 22254   0.976E-04    0.557E-04
RMM:  12    -0.660609659181E+02   -0.19514E-07   -0.12987E-08 12607   0.636E-04    0.642E-04
RMM:  13    -0.660609658921E+02    0.26017E-07   -0.10597E-08 12545   0.686E-04    0.392E-04
RMM:  14    -0.660609658690E+02    0.23065E-07   -0.49121E-09 12544   0.357E-04    0.284E-04
RMM:  15    -0.660609658605E+02    0.85765E-08   -0.28137E-09 12544   0.293E-04
   3 F= -.66060966E+02 E0= -.66060966E+02  d E =-.144496E-02
       N       E                     dE             d eps       ncg     rms          rms(c)
DAV:   1    -0.660609827382E+02   -0.16869E-04   -0.40376E-02 24264   0.527E-01    0.190E-02
RMM:   2    -0.660610305143E+02   -0.47776E-04   -0.50512E-04 24369   0.107E-01    0.698E-03
RMM:   3    -0.660610470901E+02   -0.16576E-04   -0.16934E-04 28684   0.617E-02    0.433E-03
RMM:   4    -0.660610479180E+02   -0.82786E-06   -0.12102E-05 26938   0.136E-02    0.410E-03
RMM:   5    -0.660610479926E+02   -0.74637E-07   -0.21244E-06 29519   0.604E-03    0.305E-03
RMM:   6    -0.660610479188E+02    0.73831E-07   -0.31505E-07 25820   0.215E-03    0.515E-04
RMM:   7    -0.660610479249E+02   -0.61300E-08   -0.94167E-08 21504   0.117E-03
   4 F= -.66061048E+02 E0= -.66061048E+02  d E =-.820645E-04
       N       E                     dE             d eps       ncg     rms          rms(c)
DAV:   1    -0.660608460501E+02    0.20187E-03   -0.17902E-01 24096   0.111E+00    0.406E-02
RMM:   2    -0.660610472561E+02   -0.20121E-03   -0.21451E-03 24369   0.234E-01    0.170E-02
RMM:   3    -0.660611345324E+02   -0.87276E-04   -0.91361E-04 28718   0.143E-01    0.907E-03
RMM:   4    -0.660611397805E+02   -0.52481E-05   -0.66035E-05 26946   0.325E-02    0.865E-03
RMM:   5    -0.660611405082E+02   -0.72766E-06   -0.12255E-05 29323   0.139E-02    0.624E-03
RMM:   6    -0.660611404889E+02    0.19258E-07   -0.15309E-06 22355   0.476E-03    0.112E-03
RMM:   7    -0.660611405574E+02   -0.68478E-07   -0.59133E-07 29037   0.308E-03    0.836E-04
RMM:   8    -0.660611405968E+02   -0.39334E-07   -0.14851E-07 21939   0.196E-03    0.561E-04
RMM:   9    -0.660611405771E+02    0.19696E-07   -0.29792E-08 15482   0.900E-04    0.338E-04
RMM:  10    -0.660611405780E+02   -0.91677E-09   -0.92812E-09 12545   0.584E-04
   5 F= -.66061141E+02 E0= -.66061141E+02  d E =-.174718E-03
       N       E                     dE             d eps       ncg     rms          rms(c)
DAV:   1    -0.660611147769E+02    0.25800E-04   -0.20174E-02 24504   0.373E-01    0.134E-02
RMM:   2    -0.660611389251E+02   -0.24148E-04   -0.25504E-04 24366   0.755E-02    0.474E-03
RMM:   3    -0.660611469315E+02   -0.80064E-05   -0.80809E-05 28713   0.423E-02    0.302E-03
RMM:   4    -0.660611473232E+02   -0.39166E-06   -0.59560E-06 26896   0.949E-03    0.287E-03
RMM:   5    -0.660611473587E+02   -0.35529E-07   -0.11054E-06 29484   0.427E-03    0.214E-03
RMM:   6    -0.660611473231E+02    0.35541E-07   -0.15022E-07 21959   0.151E-03    0.407E-04
RMM:   7    -0.660611473226E+02    0.55843E-09   -0.56622E-08 18729   0.101E-03
   6 F= -.66061147E+02 E0= -.66061147E+02  d E =-.181462E-03
       N       E                     dE             d eps       ncg     rms          rms(c)
DAV:   1    -0.660611446256E+02    0.26975E-05   -0.11483E-02 24288   0.285E-01    0.107E-02
RMM:   2    -0.660611594018E+02   -0.14776E-04   -0.15495E-04 24287   0.580E-02    0.372E-03
RMM:   3    -0.660611636255E+02   -0.42238E-05   -0.42964E-05 28687   0.308E-02    0.223E-03
RMM:   4    -0.660611639609E+02   -0.33536E-06   -0.42844E-06 26575   0.782E-03    0.202E-03
RMM:   5    -0.660611640021E+02   -0.41175E-07   -0.77661E-07 30373   0.358E-03    0.153E-03
RMM:   6    -0.660611639961E+02    0.59681E-08   -0.88540E-08 21596   0.120E-03
   7 F= -.66061164E+02 E0= -.66061164E+02  d E =-.166735E-04
       N       E                     dE             d eps       ncg     rms          rms(c)
DAV:   1    -0.660611504868E+02    0.13515E-04   -0.14931E-02 24392   0.326E-01    0.124E-02
RMM:   2    -0.660611694334E+02   -0.18947E-04   -0.19989E-04 24297   0.665E-02    0.446E-03
RMM:   3    -0.660611752942E+02   -0.58608E-05   -0.58836E-05 28788   0.363E-02    0.253E-03
RMM:   4    -0.660611756887E+02   -0.39449E-06   -0.54674E-06 26578   0.877E-03    0.233E-03
RMM:   5    -0.660611757285E+02   -0.39827E-07   -0.90862E-07 30221   0.391E-03    0.175E-03
RMM:   6    -0.660611757114E+02    0.17097E-07   -0.11716E-07 21699   0.137E-03    0.407E-04
RMM:   7    -0.660611757108E+02    0.60572E-09   -0.44042E-08 15923   0.869E-04
   8 F= -.66061176E+02 E0= -.66061176E+02  d E =-.283882E-04
       N       E                     dE             d eps       ncg     rms          rms(c)
DAV:   1    -0.660610743236E+02    0.10139E-03   -0.59729E-02 24272   0.651E-01    0.246E-02
RMM:   2    -0.660611489067E+02   -0.74583E-04   -0.78590E-04 24283   0.134E-01    0.936E-03
RMM:   3    -0.660611741084E+02   -0.25202E-04   -0.25820E-04 28731   0.775E-02    0.540E-03
RMM:   4    -0.660611757779E+02   -0.16695E-05   -0.22308E-05 26650   0.178E-02    0.506E-03
RMM:   5    -0.660611759076E+02   -0.12972E-06   -0.33452E-06 30197   0.774E-03    0.381E-03
RMM:   6    -0.660611757973E+02    0.11033E-06   -0.53332E-07 25936   0.270E-03    0.730E-04
RMM:   7    -0.660611758185E+02   -0.21224E-07   -0.15306E-07 25228   0.144E-03    0.721E-04
RMM:   8    -0.660611758755E+02   -0.56934E-07   -0.82700E-08 17240   0.108E-03    0.833E-04
RMM:   9    -0.660611758403E+02    0.35152E-07   -0.22852E-08 13427   0.952E-04    0.269E-04
RMM:  10    -0.660611758404E+02   -0.36380E-10   -0.66881E-09 12544   0.436E-04
   9 F= -.66061176E+02 E0= -.66061176E+02  d E =-.285178E-04
       N       E                     dE             d eps       ncg     rms          rms(c)
DAV:   1    -0.660611526391E+02    0.23201E-04   -0.15997E-02 24112   0.337E-01    0.126E-02
RMM:   2    -0.660611729475E+02   -0.20308E-04   -0.21377E-04 24281   0.688E-02    0.463E-03
RMM:   3    -0.660611792107E+02   -0.62632E-05   -0.63037E-05 28667   0.378E-02    0.272E-03
RMM:   4    -0.660611796308E+02   -0.42013E-06   -0.59023E-06 26632   0.911E-03    0.250E-03
RMM:   5    -0.660611796680E+02   -0.37227E-07   -0.97644E-07 30270   0.405E-03    0.184E-03
RMM:   6    -0.660611796478E+02    0.20236E-07   -0.12514E-07 21639   0.137E-03    0.418E-04
RMM:   7    -0.660611796499E+02   -0.20555E-08   -0.48852E-08 16862   0.903E-04
  10 F= -.66061180E+02 E0= -.66061180E+02  d E =-.323273E-04
       N       E                     dE             d eps       ncg     rms          rms(c)
DAV:   1    -0.660611686307E+02    0.11017E-04   -0.12655E-02 24176   0.299E-01    0.109E-02
RMM:   2    -0.660611842853E+02   -0.15655E-04   -0.16389E-04 24249   0.603E-02    0.443E-03
RMM:   3    -0.660611890448E+02   -0.47595E-05   -0.47503E-05 28797   0.323E-02    0.238E-03
RMM:   4    -0.660611893751E+02   -0.33033E-06   -0.45139E-06 26310   0.804E-03    0.208E-03
RMM:   5    -0.660611894120E+02   -0.36856E-07   -0.81021E-07 29872   0.366E-03    0.150E-03
RMM:   6    -0.660611894075E+02    0.44529E-08   -0.10144E-07 21654   0.144E-03    0.401E-04
RMM:   7    -0.660611894087E+02   -0.11860E-08   -0.31971E-08 14722   0.771E-04
  11 F= -.66061189E+02 E0= -.66061189E+02  d E =-.975884E-05
       N       E                     dE             d eps       ncg     rms          rms(c)
DAV:   1    -0.660611693273E+02    0.20080E-04   -0.15786E-02 24288   0.334E-01    0.119E-02
RMM:   2    -0.660611889347E+02   -0.19607E-04   -0.20487E-04 24248   0.675E-02    0.474E-03
RMM:   3    -0.660611949514E+02   -0.60167E-05   -0.60151E-05 28810   0.365E-02    0.272E-03
RMM:   4    -0.660611953672E+02   -0.41582E-06   -0.56743E-06 26339   0.896E-03    0.247E-03
RMM:   5    -0.660611954109E+02   -0.43754E-07   -0.10072E-06 30327   0.405E-03    0.184E-03
RMM:   6    -0.660611953975E+02    0.13464E-07   -0.12110E-07 21745   0.142E-03    0.463E-04
RMM:   7    -0.660611953991E+02   -0.15771E-08   -0.43586E-08 16060   0.870E-04
  12 F= -.66061195E+02 E0= -.66061195E+02  d E =-.157492E-04
       N       E                     dE             d eps       ncg     rms          rms(c)
DAV:   1    -0.660610872201E+02    0.10818E-03   -0.63119E-02 24240   0.668E-01    0.240E-02
RMM:   2    -0.660611634293E+02   -0.76209E-04   -0.79903E-04 24257   0.136E-01    0.104E-02
RMM:   3    -0.660611900501E+02   -0.26621E-04   -0.27139E-04 28785   0.790E-02    0.567E-03
RMM:   4    -0.660611917826E+02   -0.17325E-05   -0.22827E-05 26461   0.181E-02    0.513E-03
RMM:   5    -0.660611919292E+02   -0.14669E-06   -0.35689E-06 30441   0.789E-03    0.372E-03
RMM:   6    -0.660611918336E+02    0.95606E-07   -0.50999E-07 25990   0.268E-03    0.816E-04
RMM:   7    -0.660611918630E+02   -0.29393E-07   -0.14491E-07 24470   0.141E-03    0.771E-04
RMM:   8    -0.660611919448E+02   -0.81749E-07   -0.10346E-07 20408   0.148E-03    0.964E-04
RMM:   9    -0.660611918941E+02    0.50683E-07   -0.24803E-08 13887   0.998E-04    0.274E-04
RMM:  10    -0.660611918928E+02    0.12660E-08   -0.68080E-09 12545   0.425E-04
  13 F= -.66061192E+02 E0= -.66061192E+02  d E =-.122430E-04
       N       E                     dE             d eps       ncg     rms          rms(c)
DAV:   1    -0.660611439076E+02    0.47986E-04   -0.31894E-02 24056   0.475E-01    0.171E-02
RMM:   2    -0.660611828228E+02   -0.38915E-04   -0.40791E-04 24252   0.963E-02    0.730E-03
RMM:   3    -0.660611956330E+02   -0.12810E-04   -0.12918E-04 28777   0.542E-02    0.397E-03
RMM:   4    -0.660611964589E+02   -0.82591E-06   -0.11295E-05 26431   0.127E-02    0.352E-03
RMM:   5    -0.660611965311E+02   -0.72230E-07   -0.18796E-06 30451   0.562E-03    0.250E-03
RMM:   6    -0.660611964829E+02    0.48190E-07   -0.23899E-07 22543   0.187E-03    0.579E-04
RMM:   7    -0.660611964942E+02   -0.11236E-07   -0.82508E-08 20914   0.118E-03    0.559E-04
RMM:   8    -0.660611965371E+02   -0.42905E-07   -0.41381E-08 16022   0.120E-03    0.456E-04
RMM:   9    -0.660611965221E+02    0.14970E-07   -0.68321E-09 12545   0.533E-04    0.282E-04
RMM:  10    -0.660611965092E+02    0.12913E-07   -0.45261E-09 12544   0.347E-04    0.259E-04
RMM:  11    -0.660611965073E+02    0.18954E-08   -0.21271E-09 12540   0.274E-04
  14 F= -.66061197E+02 E0= -.66061197E+02  d E =-.168574E-04
       N       E                     dE             d eps       ncg     rms          rms(c)
DAV:   1    -0.660611831008E+02    0.13408E-04   -0.11822E-02 24056   0.285E-01    0.834E-03
RMM:   2    -0.660611965521E+02   -0.13451E-04   -0.13989E-04 24611   0.569E-02    0.405E-03
RMM:   3    -0.660612008306E+02   -0.42785E-05   -0.42334E-05 28483   0.300E-02    0.226E-03
RMM:   4    -0.660612010842E+02   -0.25367E-06   -0.35792E-06 26510   0.736E-03    0.195E-03
RMM:   5    -0.660612011079E+02   -0.23651E-07   -0.70975E-07 29052   0.341E-03    0.131E-03
RMM:   6    -0.660612011109E+02   -0.29959E-08   -0.95906E-08 20781   0.159E-03
  15 F= -.66061201E+02 E0= -.66061201E+02  d E =-.460358E-05
       N       E                     dE             d eps       ncg     rms          rms(c)
DAV:   1    -0.660612003346E+02    0.77325E-06   -0.92174E-04 24784   0.795E-02    0.258E-03
RMM:   2    -0.660612013830E+02   -0.10483E-05   -0.10865E-05 24624   0.160E-02    0.123E-03
RMM:   3    -0.660612017122E+02   -0.32920E-06   -0.34873E-06 28697   0.858E-03    0.612E-04
RMM:   4    -0.660612017430E+02   -0.30841E-07   -0.28050E-07 24613   0.205E-03    0.529E-04
RMM:   5    -0.660612017463E+02   -0.33033E-08   -0.43867E-08 16388   0.950E-04
  16 F= -.66061202E+02 E0= -.66061202E+02  d E =-.523903E-05
       N       E                     dE             d eps       ncg     rms          rms(c)
DAV:   1    -0.660611964984E+02    0.52446E-05   -0.36816E-03 24128   0.159E-01    0.468E-03
RMM:   2    -0.660612006178E+02   -0.41194E-05   -0.43041E-05 24630   0.320E-02    0.229E-03
RMM:   3    -0.660612020657E+02   -0.14479E-05   -0.14048E-05 28494   0.174E-02    0.129E-03
RMM:   4    -0.660612021336E+02   -0.67887E-07   -0.11127E-06 26400   0.407E-03    0.112E-03
RMM:   5    -0.660612021392E+02   -0.55516E-08   -0.19416E-07 24241   0.184E-03    0.748E-04
RMM:   6    -0.660612021474E+02   -0.82782E-08   -0.29741E-08 14515   0.101E-03
  17 F= -.66061202E+02 E0= -.66061202E+02  d E =-.564013E-05
       N       E                     dE             d eps       ncg     rms          rms(c)
DAV:   1    -0.660612007321E+02    0.14071E-05   -0.89045E-04 24104   0.781E-02    0.215E-03
RMM:   2    -0.660612017206E+02   -0.98847E-06   -0.10406E-05 24595   0.157E-02    0.112E-03
RMM:   3    -0.660612020864E+02   -0.36588E-06   -0.33208E-06 28255   0.849E-03    0.703E-04
RMM:   4    -0.660612020936E+02   -0.71323E-08   -0.27464E-07 24738   0.203E-03    0.631E-04
RMM:   5    -0.660612020892E+02    0.44238E-08   -0.44156E-08 16674   0.933E-04
  18 F= -.66061202E+02 E0= -.66061202E+02  d E =-.558185E-05
       N       E                     dE             d eps       ncg     rms          rms(c)
DAV:   1    -0.660612017322E+02    0.36138E-06   -0.27192E-04 24152   0.433E-02    0.129E-03
RMM:   2    -0.660612020508E+02   -0.31862E-06   -0.30168E-06 24516   0.897E-03    0.706E-04
RMM:   3    -0.660612021401E+02   -0.89307E-07   -0.12898E-06 28278   0.531E-03    0.410E-04
RMM:   4    -0.660612021548E+02   -0.14716E-07   -0.92227E-08 20172   0.124E-03    0.379E-04
RMM:   5    -0.660612021584E+02   -0.35452E-08   -0.15848E-08 12579   0.623E-04
  19 F= -.66061202E+02 E0= -.66061202E+02  d E =-.565108E-05
       N       E                     dE             d eps       ncg     rms          rms(c)
DAV:   1    -0.660611944684E+02    0.76865E-05   -0.62707E-03 24248   0.208E-01    0.676E-03
RMM:   2    -0.660612018117E+02   -0.73433E-05   -0.76432E-05 24510   0.416E-02    0.289E-03
RMM:   3    -0.660612040119E+02   -0.22002E-05   -0.22131E-05 28549   0.216E-02    0.162E-03
RMM:   4    -0.660612041688E+02   -0.15687E-06   -0.19649E-06 26522   0.548E-03    0.141E-03
RMM:   5    -0.660612041916E+02   -0.22790E-07   -0.40575E-07 27225   0.259E-03    0.976E-04
RMM:   6    -0.660612041958E+02   -0.42219E-08   -0.54718E-08 16415   0.135E-03
  20 F= -.66061204E+02 E0= -.66061204E+02  d E =-.203739E-05
       N       E                     dE             d eps       ncg     rms          rms(c)
DAV:   1    -0.660612041123E+02    0.79275E-07   -0.16680E-04 24952   0.339E-02    0.130E-03
RMM:   2    -0.660612042967E+02   -0.18439E-06   -0.20314E-06 24491   0.684E-03    0.610E-04
RMM:   3    -0.660612043749E+02   -0.78249E-07   -0.65463E-07 28778   0.375E-03    0.331E-04
RMM:   4    -0.660612043739E+02    0.99135E-09   -0.49171E-08 16154   0.902E-04    0.304E-04
RMM:   5    -0.660612043729E+02    0.10514E-08   -0.10075E-08 12465   0.536E-04
  21 F= -.66061204E+02 E0= -.66061204E+02  d E =-.221449E-05
       N       E                     dE             d eps       ncg     rms          rms(c)
DAV:   1    -0.660612035490E+02    0.82492E-06   -0.66499E-04 24264   0.677E-02    0.224E-03
RMM:   2    -0.660612042937E+02   -0.74470E-06   -0.79060E-06 24527   0.138E-02    0.108E-03
RMM:   3    -0.660612045844E+02   -0.29072E-06   -0.27445E-06 28545   0.783E-03    0.595E-04
RMM:   4    -0.660612045956E+02   -0.11172E-07   -0.21731E-07 24379   0.181E-03    0.540E-04
RMM:   5    -0.660612045939E+02    0.17044E-08   -0.29825E-08 13979   0.832E-04
  22 F= -.66061205E+02 E0= -.66061205E+02  d E =-.243551E-05
       N       E                     dE             d eps       ncg     rms          rms(c)
DAV:   1    -0.660612004505E+02    0.41451E-05   -0.31510E-03 24248   0.148E-01    0.529E-03
RMM:   2    -0.660612042227E+02   -0.37722E-05   -0.39870E-05 24390   0.302E-02    0.213E-03
RMM:   3    -0.660612054968E+02   -0.12741E-05   -0.12575E-05 28561   0.168E-02    0.123E-03
RMM:   4    -0.660612055667E+02   -0.69895E-07   -0.10711E-06 26528   0.395E-03    0.114E-03
RMM:   5    -0.660612055706E+02   -0.39017E-08   -0.17344E-07 23765   0.176E-03    0.820E-04
RMM:   6    -0.660612055725E+02   -0.19008E-08   -0.31433E-08 14359   0.993E-04
  23 F= -.66061206E+02 E0= -.66061206E+02  d E =-.978638E-06
       N       E                     dE             d eps       ncg     rms          rms(c)
DAV:   1    -0.660612055734E+02   -0.27758E-08   -0.14373E-06 24872   0.324E-03    0.347E-04
RMM:   2    -0.660612055732E+02    0.25466E-09   -0.29007E-08 14895   0.105E-03    0.262E-04
RMM:   3    -0.660612055755E+02   -0.23665E-08   -0.12352E-08 11486   0.667E-04    0.235E-04
RMM:   4    -0.660612055752E+02    0.30377E-09   -0.51802E-09 11380   0.531E-04    0.230E-04
RMM:   5    -0.660612055759E+02   -0.64028E-09   -0.24168E-09 11400   0.325E-04
  24 F= -.66061206E+02 E0= -.66061206E+02  d E =-.981961E-06
       N       E                     dE             d eps       ncg     rms          rms(c)
DAV:   1    -0.660612055788E+02   -0.36307E-08   -0.55883E-06 24256   0.626E-03    0.326E-04
RMM:   2    -0.660612055841E+02   -0.52405E-08   -0.74164E-08 20061   0.159E-03    0.257E-04
RMM:   3    -0.660612055881E+02   -0.40309E-08   -0.33918E-08 14843   0.973E-04    0.237E-04
RMM:   4    -0.660612055891E+02   -0.10004E-08   -0.67109E-09 11127   0.632E-04    0.229E-04
RMM:   5    -0.660612055893E+02   -0.13824E-09   -0.30392E-09 11090   0.359E-04
  25 F= -.66061206E+02 E0= -.66061206E+02  d E =-.995362E-06
       N       E                     dE             d eps       ncg     rms          rms(c)
DAV:   1    -0.660612055728E+02    0.16285E-07   -0.22233E-05 24272   0.125E-02    0.490E-04
RMM:   2    -0.660612055993E+02   -0.26503E-07   -0.27242E-07 24040   0.270E-03    0.291E-04
RMM:   3    -0.660612056092E+02   -0.98880E-08   -0.11260E-07 21658   0.162E-03    0.249E-04
RMM:   4    -0.660612056104E+02   -0.11732E-08   -0.11838E-08 11497   0.608E-04    0.244E-04
RMM:   5    -0.660612056102E+02    0.20009E-09   -0.42619E-09 11230   0.382E-04
  26 F= -.66061206E+02 E0= -.66061206E+02  d E =-.101630E-05
       N       E                     dE             d eps       ncg     rms          rms(c)
DAV:   1    -0.660612036629E+02    0.19475E-05   -0.14903E-03 24128   0.102E-01    0.321E-03
RMM:   2    -0.660612054334E+02   -0.17705E-05   -0.18418E-05 24582   0.205E-02    0.134E-03
RMM:   3    -0.660612059658E+02   -0.53246E-06   -0.52953E-06 28269   0.106E-02    0.785E-04
RMM:   4    -0.660612060031E+02   -0.37286E-07   -0.49278E-07 26062   0.272E-03    0.720E-04
RMM:   5    -0.660612060058E+02   -0.27085E-08   -0.86964E-08 18864   0.129E-03
  27 F= -.66061206E+02 E0= -.66061206E+02  d E =-.395632E-06
       N       E                     dE             d eps       ncg     rms          rms(c)
DAV:   1    -0.660612059986E+02    0.45202E-08   -0.79130E-07 25088   0.266E-03    0.296E-04
RMM:   2    -0.660612060018E+02   -0.31469E-08   -0.24441E-08 13504   0.778E-04    0.240E-04
RMM:   3    -0.660612060021E+02   -0.34379E-09   -0.75916E-09 11324   0.548E-04    0.229E-04
RMM:   4    -0.660612060031E+02   -0.95679E-09   -0.29377E-09 11256   0.370E-04    0.227E-04
RMM:   5    -0.660612060029E+02    0.19281E-09   -0.13379E-09 10238   0.239E-04
  28 F= -.66061206E+02 E0= -.66061206E+02  d E =-.392658E-06
       N       E                     dE             d eps       ncg     rms          rms(c)
DAV:   1    -0.660612060060E+02   -0.29886E-08   -0.64628E-07 22216   0.214E-03    0.241E-04
RMM:   2    -0.660612060078E+02   -0.17117E-08   -0.94498E-09 11103   0.618E-04    0.230E-04
RMM:   3    -0.660612060070E+02    0.70577E-09   -0.33418E-09 10986   0.396E-04    0.227E-04
RMM:   4    -0.660612060074E+02   -0.40200E-09   -0.15281E-09 11024   0.284E-04    0.227E-04
RMM:   5    -0.660612060072E+02    0.21100E-09   -0.74326E-10 10123   0.188E-04
  29 F= -.66061206E+02 E0= -.66061206E+02  d E =-.397036E-06
       N       E                     dE             d eps       ncg     rms          rms(c)
DAV:   1    -0.660612060077E+02   -0.24193E-09   -0.45179E-09 12992   0.250E-04    0.228E-04
RMM:   2    -0.660612060070E+02    0.68394E-09   -0.12590E-09  5802   0.256E-04    0.227E-04
RMM:   3    -0.660612060073E+02   -0.28376E-09   -0.35377E-10  5466   0.112E-04    0.226E-04
RMM:   4    -0.660612060072E+02    0.70941E-10   -0.15380E-10  5349   0.107E-04    0.227E-04
RMM:   5    -0.660612060078E+02   -0.54570E-09   -0.88905E-11  5404   0.857E-05
  30 F= -.66061206E+02 E0= -.66061206E+02  d E =-.397564E-06
       N       E                     dE             d eps       ncg     rms          rms(c)
DAV:   1    -0.660612060079E+02   -0.66211E-09   -0.45216E-10 11784   0.823E-05    0.226E-04
RMM:   2    -0.660612060078E+02    0.38199E-10   -0.66203E-12   934   0.517E-05    0.226E-04
RMM:   3    -0.660612060078E+02    0.72760E-11   -0.59434E-12   880   0.509E-05    0.226E-04
RMM:   4    -0.660612060078E+02    0.54570E-11   -0.41026E-12   825   0.507E-05    0.226E-04
RMM:   5    -0.660612060078E+02    0.12733E-10   -0.25071E-12   804   0.505E-05
  31 F= -.66061206E+02 E0= -.66061206E+02  d E =-.397617E-06
       N       E                     dE             d eps       ncg     rms          rms(c)
DAV:   1    -0.660612060078E+02    0.30923E-10    0.81750E-12 11888   0.523E-05    0.226E-04
RMM:   2    -0.660612060075E+02    0.25102E-09    0.00000E+00   398   0.348E-05    0.226E-04
RMM:   3    -0.660612060070E+02    0.52205E-09    0.00000E+00   396   0.390E-05    0.226E-04
RMM:   4    -0.660612060070E+02   -0.54570E-11    0.00000E+00   418   0.390E-05    0.226E-04
RMM:   5    -0.660612060070E+02    0.90949E-11    0.00000E+00   412   0.391E-05
  32 F= -.66061206E+02 E0= -.66061206E+02  d E =-.396822E-06
       N       E                     dE             d eps       ncg     rms          rms(c)
DAV:   1    -0.660612060069E+02    0.14916E-09    0.51671E-11 11584   0.393E-05    0.226E-04
RMM:   2    -0.660612060074E+02   -0.55297E-09    0.00000E+00   268   0.258E-05    0.226E-04
RMM:   3    -0.660612060081E+02   -0.68758E-09    0.00000E+00   265   0.328E-05    0.226E-04
RMM:   4    -0.660612060081E+02    0.27285E-10    0.00000E+00   280   0.330E-05    0.226E-04
RMM:   5    -0.660612060081E+02    0.23647E-10    0.00000E+00   285   0.330E-05
  33 F= -.66061206E+02 E0= -.66061206E+02  d E =-.397871E-06
       N       E                     dE             d eps       ncg     rms          rms(c)
DAV:   1    -0.660612060081E+02   -0.41837E-10    0.63370E-11 11432   0.331E-05    0.226E-04
RMM:   2    -0.660612060077E+02    0.43292E-09    0.00000E+00   231   0.187E-05    0.226E-04
RMM:   3    -0.660612060070E+02    0.74942E-09    0.00000E+00   229   0.265E-05    0.226E-04
RMM:   4    -0.660612060070E+02   -0.45475E-10    0.00000E+00   235   0.266E-05    0.226E-04
RMM:   5    -0.660612060070E+02    0.12733E-10    0.00000E+00   259   0.266E-05
  34 F= -.66061206E+02 E0= -.66061206E+02  d E =-.396787E-06
       N       E                     dE             d eps       ncg     rms          rms(c)
DAV:   1    -0.660612060070E+02    0.00000E+00    0.72892E-11 11368   0.267E-05    0.226E-04
RMM:   2    -0.660612060074E+02   -0.40745E-09    0.00000E+00   188   0.155E-05    0.226E-04
RMM:   3    -0.660612060081E+02   -0.69667E-09    0.00000E+00   189   0.229E-05    0.226E-04
RMM:   4    -0.660612060081E+02   -0.21828E-10    0.00000E+00   193   0.229E-05    0.226E-04
RMM:   5    -0.660612060081E+02   -0.18190E-10    0.00000E+00   204   0.230E-05
  35 F= -.66061206E+02 E0= -.66061206E+02  d E =-.397944E-06
       N       E                     dE             d eps       ncg     rms          rms(c)
DAV:   1    -0.660612060081E+02    0.20009E-10    0.74096E-11 11312   0.230E-05    0.226E-04
RMM:   2    -0.660612060077E+02    0.37653E-09    0.00000E+00   194   0.121E-05    0.226E-04
RMM:   3    -0.660612060071E+02    0.64210E-09    0.00000E+00   193   0.187E-05    0.226E-04
RMM:   4    -0.660612060071E+02   -0.14552E-10    0.00000E+00   199   0.187E-05    0.226E-04
RMM:   5    -0.660612060071E+02   -0.12733E-10    0.00000E+00   208   0.188E-05
  36 F= -.66061206E+02 E0= -.66061206E+02  d E =-.396914E-06
       N       E                     dE             d eps       ncg     rms          rms(c)
DAV:   1    -0.660612032694E+02    0.27377E-05   -0.14896E-03 24088   0.102E-01    0.321E-03
RMM:   2    -0.660612050375E+02   -0.17681E-05   -0.18423E-05 24562   0.205E-02    0.133E-03
RMM:   3    -0.660612055733E+02   -0.53583E-06   -0.52293E-06 28282   0.105E-02    0.781E-04
RMM:   4    -0.660612056068E+02   -0.33431E-07   -0.48900E-07 26041   0.272E-03    0.702E-04
RMM:   5    -0.660612056082E+02   -0.13843E-08   -0.89264E-08 18796   0.131E-03
  37 F= -.66061206E+02 E0= -.66061206E+02  d E =0.204454E-08
