   16   16  200    1
  0.2016476E+02  0.7698558E-09  0.7698558E-09  0.7698558E-09  0.5000000E-15
   1.0000000000000000E-004
  CAR 
 unknown system                          
     64    112     48
