 vasp.6.3.0 20Jan22 (build Feb 21 2022 11:18:28) complex                         
 executed on       CrayXC_GCC_OMP date 2023.10.02  16:41:37
 running  128 mpi-ranks, with    1 threads/rank
 distrk:  each k-point on  128 cores,    1 groups
 distr:  one band on NCORE=  16 cores,    8 groups


--------------------------------------------------------------------------------------------------------


 INCAR:
   NWRITE = 2        (Medium-level output)   
   ISTART = 1        (Read existing wavefunction
   INIWAV = 1        (Random initial wavefunction
   ICORELEVEL = 1    (Print core levels)
   LPLANE = TRUE (Real space distribution
   NCORE = 16     (how many cores share the work on an individual orbital)
   PREC = Accurate  (Precision level)
   LREAL = .FALSE. (Accurate forces
   ALGO = FAST      (SCF minimisation algorithm
   ENMAX = 600.00 eV (Plane-wave cutoff) 
   NELM = 500     (Max SCF steps)   
   NELMIN = 5        (Min SCF steps)
   EDIFF = 1E-08     (SCF energy convergence
   ISPIN = 1        (Closed shell DFT)
   GGA = PS     (PBEsol exchange-correlation)
   ADDGRID = TRUE  (Increase grid
   EDIFFG = -1E-07    (Ionic convergence
   NSW = 200         (Max ionic steps
   NBLOCK = 1     (Update XDATCAR, DOSCAR every NBLOCK steps) 
   IBRION = 2     (Algorithm: 0-MD
   ISIF = 7     (Stress/relaxation: 2-Ions, 3-Shape/Ions/V, 7-Vol)
   ISYM = 2     (Symmetry: 0\=none
   2 = GGA
   3 = hybrids) 
   ISMEAR = 0     (Gaussian smearing
   SIGMA = 0.01  (Smearing value in eV
   LORBIT = 11     (PAW radii for projected DOS)
   NEDOS = 1000    (DOSCAR points)
   LMAXMIX = 4       (Mixing cut-off
   ML_ISTART = 0
   ML_LMLFF = TRUE

 POTCAR:    PAW_PBE Si 05Jan2001                  
 POTCAR:    PAW_PBE Si 05Jan2001                  
   VRHFIN =Si: s2p2                                                                                 
   LEXCH  = PE                                                                                      
   EATOM  =   103.0669 eV,    7.5752 Ry                                                             
                                                                                                    
   TITEL  = PAW_PBE Si 05Jan2001                                                                    
   LULTRA =        F    use ultrasoft PP ?                                                          
   IUNSCR =        1    unscreen: 0-lin 1-nonlin 2-no                                               
   RPACOR =    1.500    partial core radius                                                         
   POMASS =   28.085; ZVAL   =    4.000    mass and valenz                                          
   RCORE  =    1.900    outmost cutoff radius                                                       
   RWIGS  =    2.480; RWIGS  =    1.312    wigner-seitz radius (au A)                               
   ENMAX  =  245.345; ENMIN  =  184.009 eV                                                          
   ICORE  =        2    local potential                                                             
   LCOR   =        T    correct aug charges                                                         
   LPAW   =        T    paw PP                                                                      
   EAUG   =  322.069                                                                                
   DEXC   =    0.000                                                                                
   RMAX   =    1.950    core radius for proj-oper                                                   
   RAUG   =    1.300    factor for augmentation sphere                                              
   RDEP   =    1.993    radius for radial grids                                                     
   RDEPT  =    1.837    core radius for aug-charge                                                  
                                                                                                    
   Atomic configuration                                                                             
    6 entries                                                                                       
     n  l   j            E        occ.                                                              
     1  0  0.50     -1785.8828   2.0000                                                             
     2  0  0.50      -139.4969   2.0000                                                             
     2  1  1.50       -95.5546   6.0000                                                             
     3  0  0.50       -10.8127   2.0000                                                             
     3  1  0.50        -4.0811   2.0000                                                             
     3  2  1.50        -4.0817   0.0000                                                             
   Description                                                                                      
     l       E           TYP  RCUT    TYP  RCUT                                                     
     0    -10.8127223     23  1.900                                                                 
     0     -7.6451159     23  1.900                                                                 
     1     -4.0811372     23  1.900                                                                 
     1      2.4879257     23  1.900                                                                 
     2     -4.0817478      7  1.900                                                                 
  local pseudopotential read in
  partial core-charges read in
  partial kinetic energy density read in
  atomic valenz-charges read in
  non local Contribution for L=           0  read in
    real space projection operators read in
  non local Contribution for L=           0  read in
    real space projection operators read in
  non local Contribution for L=           1  read in
    real space projection operators read in
  non local Contribution for L=           1  read in
    real space projection operators read in
    PAW grid and wavefunctions read in

   number of l-projection  operators is LMAX  =           4
   number of lm-projection operators is LMMAX =           8

 -----------------------------------------------------------------------------
|                                                                             |
|               ----> ADVICE to this user running VASP <----                  |
|                                                                             |
|     You enforced a specific xc type in the INCAR file but a different       |
|     type was found in the POTCAR file.                                      |
|     I HOPE YOU KNOW WHAT YOU ARE DOING!                                     |
|                                                                             |
 -----------------------------------------------------------------------------

  PAW_PBE Si 05Jan2001                  :
 energy of atom  1       EATOM= -103.0669
 kinetic energy error for atom=    0.0003 (will be added to EATOM!!)


 POSCAR: generated by phonopy
  positions in direct lattice
  velocities in cartesian coordinates
 exchange correlation table for  LEXCH =       14
   RHO(1)=    0.500       N(1)  =     2000
   RHO(2)=  100.500       N(2)  =     4000



--------------------------------------------------------------------------------------------------------


 ion  position               nearest neighbor table
   1  0.125  0.125  0.125-  11 2.35  10 2.35   9 2.35  13 2.35
   2  0.625  0.125  0.125-  12 2.35  10 2.35   9 2.35  14 2.35
   3  0.125  0.625  0.125-   9 2.35  11 2.35  12 2.35  15 2.35
   4  0.625  0.625  0.125-  10 2.35  11 2.35  12 2.35  16 2.35
   5  0.125  0.125  0.625-  15 2.35  13 2.35  14 2.35   9 2.35
   6  0.625  0.125  0.625-  16 2.35  13 2.35  14 2.35  10 2.35
   7  0.125  0.625  0.625-  13 2.35  11 2.35  15 2.35  16 2.35
   8  0.625  0.625  0.625-  14 2.35  12 2.35  15 2.35  16 2.35
   9  0.000  0.000  0.000-   3 2.35   2 2.35   1 2.35   5 2.35
  10  0.500  0.000  0.000-   4 2.35   2 2.35   1 2.35   6 2.35
  11  0.000  0.500  0.000-   1 2.35   3 2.35   4 2.35   7 2.35
  12  0.500  0.500  0.000-   2 2.35   3 2.35   4 2.35   8 2.35
  13  0.000  0.000  0.500-   7 2.35   5 2.35   6 2.35   1 2.35
  14  0.500  0.000  0.500-   8 2.35   5 2.35   6 2.35   2 2.35
  15  0.000  0.500  0.500-   5 2.35   3 2.35   7 2.35   8 2.35
  16  0.500  0.500  0.500-   6 2.35   4 2.35   7 2.35   8 2.35

  LATTYP: Found a face centered cubic cell.
 ALAT       =    10.8709093612
  
  Lattice vectors:
  
 A1 = (   0.0000000000,   5.4354546806,   5.4354546806)
 A2 = (   5.4354546806,   0.0000000000,   5.4354546806)
 A3 = (   5.4354546806,   5.4354546806,   0.0000000000)


Analysis of symmetry for initial positions (statically):
=====================================================================
 Subroutine PRICEL returns following result:
 
  LATTYP: Found a face centered cubic cell.
 ALAT       =     5.4354546806
  
  Lattice vectors:
  
 A1 = (   0.0000000000,   2.7177273403,   2.7177273403)
 A2 = (   2.7177273403,   0.0000000000,   2.7177273403)
 A3 = (   2.7177273403,   2.7177273403,   0.0000000000)
 
   8 primitive cells build up your supercell.
 

 Routine SETGRP: Setting up the symmetry group for a 
 face centered cubic supercell.


 Subroutine GETGRP returns: Found 48 space group operations
 (whereof 24 operations were pure point group operations)
 out of a pool of 48 trial point group operations.


The static configuration has the point symmetry T_d .
 The point group associated with its full space group is O_h .


Analysis of symmetry for dynamics (positions and initial velocities):
=====================================================================
 Subroutine PRICEL returns following result:
 
  LATTYP: Found a face centered cubic cell.
 ALAT       =     5.4354546806
  
  Lattice vectors:
  
 A1 = (   0.0000000000,   2.7177273403,   2.7177273403)
 A2 = (   2.7177273403,   0.0000000000,   2.7177273403)
 A3 = (   2.7177273403,   2.7177273403,   0.0000000000)
 
   8 primitive cells build up your supercell.
 

 Routine SETGRP: Setting up the symmetry group for a 
 face centered cubic supercell.


 Subroutine GETGRP returns: Found 48 space group operations
 (whereof 24 operations were pure point group operations)
 out of a pool of 48 trial point group operations.


The dynamic configuration has the point symmetry T_d .
 The point group associated with its full space group is O_h .


 Subroutine INISYM returns: Found 48 space group operations
 (whereof 24 operations are pure point group operations),
 and found     8 'primitive' translations


----------------------------------------------------------------------------------------

                                     Primitive cell                                     

  volume of cell :      40.1465

  direct lattice vectors                    reciprocal lattice vectors
     0.000000000  2.717727340  2.717727340    -0.183977249  0.183977249  0.183977249
     2.717727340  0.000000000  2.717727340     0.183977249 -0.183977249  0.183977249
     2.717727340  2.717727340  0.000000000     0.183977249  0.183977249 -0.183977249

  length of vectors
     3.843446864  3.843446864  3.843446864     0.318657943  0.318657943  0.318657943

  position of ions in fractional coordinates (direct lattice)
     0.250000000  0.250000000  0.250000000
     0.000000000  0.000000000  0.000000000

  ion indices of the primitive-cell ions
   primitive index   ion index
                 1           1
                 2           9

----------------------------------------------------------------------------------------



 KPOINTS: Regular k-point mesh                    

Automatic generation of k-mesh.
 Grid dimensions read from file:
 generate k-points for:    6    6    6

 Generating k-lattice:

  Cartesian coordinates                     Fractional coordinates (reciprocal lattice)
    -0.015331437  0.015331437  0.015331437     0.166666667  0.000000000 -0.000000000
     0.015331437 -0.015331437  0.015331437     0.000000000  0.166666667  0.000000000
     0.015331437  0.015331437 -0.015331437    -0.000000000 -0.000000000  0.166666667

  Length of vectors
     0.026554829  0.026554829  0.026554829

  Shift w.r.t. Gamma in fractional coordinates (k-lattice)
     0.000000000  0.000000000  0.000000000

 
 Subroutine IBZKPT returns following result:
 ===========================================
 
 Found     16 irreducible k-points:
 
 Following reciprocal coordinates:
            Coordinates               Weight
  0.000000  0.000000  0.000000      1.000000
  0.166667  0.000000  0.000000      8.000000
  0.333333  0.000000  0.000000      8.000000
  0.500000  0.000000  0.000000      4.000000
  0.166667  0.166667  0.000000      6.000000
  0.333333  0.166667  0.000000     24.000000
  0.500000  0.166667  0.000000     24.000000
 -0.333333  0.166667  0.000000     24.000000
 -0.166667  0.166667  0.000000     12.000000
  0.333333  0.333333  0.000000      6.000000
  0.500000  0.333333  0.000000     24.000000
 -0.333333  0.333333  0.000000     12.000000
  0.500000  0.500000  0.000000      3.000000
  0.500000  0.333333  0.166667     24.000000
 -0.333333  0.333333  0.166667     24.000000
 -0.333333  0.500000  0.166667     12.000000
 
 Following cartesian coordinates:
            Coordinates               Weight
  0.000000  0.000000  0.000000      1.000000
 -0.015331  0.015331  0.015331      8.000000
 -0.030663  0.030663  0.030663      8.000000
 -0.045994  0.045994  0.045994      4.000000
  0.000000  0.000000  0.030663      6.000000
 -0.015331  0.015331  0.045994     24.000000
 -0.030663  0.030663  0.061326     24.000000
  0.045994 -0.045994 -0.015331     24.000000
  0.030663 -0.030663  0.000000     12.000000
  0.000000  0.000000  0.061326      6.000000
 -0.015331  0.015331  0.076657     24.000000
  0.061326 -0.061326  0.000000     12.000000
  0.000000  0.000000  0.091989      3.000000
  0.000000  0.030663  0.061326     24.000000
  0.076657 -0.045994 -0.015331     24.000000
  0.091989 -0.061326  0.000000     12.000000
 


--------------------------------------------------------------------------------------------------------




 Dimension of arrays:
   k-points           NKPTS =     16   k-points in BZ     NKDIM =     16   number of bands    NBANDS=     48
   number of dos      NEDOS =   1000   number of ions     NIONS =     16
   non local maximal  LDIM  =      4   non local SUM 2l+1 LMDIM =      8
   total plane-waves  NPLWV = 262144
   max r-space proj   IRMAX =      1   max aug-charges    IRDMAX= 218494
   dimension x,y,z NGX =    64 NGY =   64 NGZ =   64
   dimension x,y,z NGXF=   128 NGYF=  128 NGZF=  128
   support grid    NGXF=   256 NGYF=  256 NGZF=  256
   ions per type =              16
   NGX,Y,Z   is equivalent  to a cutoff of  13.84, 13.84, 13.84 a.u.
   NGXF,Y,Z  is equivalent  to a cutoff of  27.68, 27.68, 27.68 a.u.

 SYSTEM =  unknown system                          
 POSCAR =  generated by phonopy                    

 Startparameter for this run:
   NWRITE =      2    write-flag & timer
   PREC   = accura    normal or accurate (medium, high low for compatibility)
   ISTART =      0    job   : 0-new  1-cont  2-samecut
   ICHARG =      2    charge: 1-file 2-atom 10-const
   ISPIN  =      1    spin polarized calculation?
   LNONCOLLINEAR =      F non collinear calculations
   LSORBIT =      F    spin-orbit coupling
   INIWAV =      1    electr: 0-lowe 1-rand  2-diag
   LASPH  =      F    aspherical Exc in radial PAW
 Electronic Relaxation 1
   ENCUT  =  600.0 eV  44.10 Ry    6.64 a.u.  15.35 15.35 15.35*2*pi/ulx,y,z
   ENINI  =  600.0     initial cutoff
   ENAUG  =  322.1 eV  augmentation charge cutoff
   NELM   =    500;   NELMIN=  5; NELMDL=  0     # of ELM steps 
   EDIFF  = 0.1E-07   stopping-criterion for ELM
   LREAL  =      F    real-space projection
   NLSPLINE    = F    spline interpolate recip. space projectors
   LCOMPAT=      F    compatible to vasp.4.4
   GGA_COMPAT  = T    GGA compatible to vasp.4.4-vasp.4.6
   LMAXPAW     = -100 max onsite density
   LMAXMIX     =    4 max onsite mixed and CHGCAR
   VOSKOWN=      0    Vosko Wilk Nusair interpolation
   ROPT   =    0.00000
 Ionic relaxation
   EDIFFG = -.1E-06   stopping-criterion for IOM
   NSW    =    200    number of steps for IOM
   NBLOCK =      1;   KBLOCK =    200    inner block; outer block 
   IBRION =      2    ionic relax: 0-MD 1-quasi-New 2-CG
   NFREE  =      1    steps in history (QN), initial steepest desc. (CG)
   ISIF   =      7    stress and relaxation
   IWAVPR =     11    prediction:  0-non 1-charg 2-wave 3-comb
   ISYM   =      2    0-nonsym 1-usesym 2-fastsym
   LCORR  =      T    Harris-Foulkes like correction to forces

   POTIM  = 0.5000    time-step for ionic-motion
   TEIN   =    0.0    initial temperature
   TEBEG  =    0.0;   TEEND  =   0.0 temperature during run
   SMASS  =  -3.00    Nose mass-parameter (am)
   estimated Nose-frequenzy (Omega)   =  0.10E-29 period in steps = 0.13E+47 mass=  -0.135E-26a.u.
   SCALEE = 1.0000    scale energy and forces
   NPACO  =    256;   APACO  = 10.0  distance and # of slots for P.C.
   PSTRESS=    0.0 pullay stress

  Mass of Ions in am
   POMASS =  28.09
  Ionic Valenz
   ZVAL   =   4.00
  Atomic Wigner-Seitz radii
   RWIGS  =  -1.00
  virtual crystal weights 
   VCA    =   1.00
   NELECT =      64.0000    total number of electrons
   NUPDOWN=      -1.0000    fix difference up-down

 DOS related values:
   EMIN   =  10.00;   EMAX   =-10.00  energy-range for DOS
   EFERMI =   0.00
   ISMEAR =     0;   SIGMA  =   0.01  broadening in eV -4-tet -1-fermi 0-gaus

 Electronic relaxation 2 (details)
   IALGO  =     68    algorithm
   LDIAG  =      T    sub-space diagonalisation (order eigenvalues)
   LSUBROT=      F    optimize rotation matrix (better conditioning)
   TURBO    =      0    0=normal 1=particle mesh
   IRESTART =      0    0=no restart 2=restart with 2 vectors
   NREBOOT  =      0    no. of reboots
   NMIN     =      0    reboot dimension
   EREF     =   0.00    reference energy to select bands
   IMIX   =      4    mixing-type and parameters
     AMIX     =   0.40;   BMIX     =  1.00
     AMIX_MAG =   1.60;   BMIX_MAG =  1.00
     AMIN     =   0.10
     WC   =   100.;   INIMIX=   1;  MIXPRE=   1;  MAXMIX= -45

 Intra band minimization:
   WEIMIN = 0.0010     energy-eigenvalue tresh-hold
   EBREAK =  0.52E-10  absolut break condition
   DEPER  =   0.30     relativ break condition  

   TIME   =   0.40     timestep for ELM

  volume/ion in A,a.u.               =      20.07       135.46
  Fermi-wavevector in a.u.,A,eV,Ry     =   0.956215  1.806985 12.440451  0.914347
  Thomas-Fermi vector in A             =   2.085123

 Write flags
   LWAVE        =      T    write WAVECAR
   LDOWNSAMPLE  =      F    k-point downsampling of WAVECAR
   LCHARG       =      T    write CHGCAR
   LVTOT        =      F    write LOCPOT, total local potential
   LVHAR        =      F    write LOCPOT, Hartree potential only
   LELF         =      F    write electronic localiz. function (ELF)
   LORBIT       =     11    0 simple, 1 ext, 2 COOP (PROOUT), +10 PAW based schemes


 Dipole corrections
   LMONO  =      F    monopole corrections only (constant potential shift)
   LDIPOL =      F    correct potential (dipole corrections)
   IDIPOL =      0    1-x, 2-y, 3-z, 4-all directions 
   EPSILON=  1.0000000 bulk dielectric constant

 Core level calculations are selected ICORELEVEL =  1
 Exchange correlation treatment:
   GGA     =    PS    GGA type
   LEXCH   =    14    internal setting for exchange type
   LIBXC   =     F    Libxc                    
   VOSKOWN =     0    Vosko Wilk Nusair interpolation
   LHFCALC =     F    Hartree Fock is set to
   LHFONE  =     F    Hartree Fock one center treatment
   AEXX    =    0.0000 exact exchange contribution

 Linear response parameters
   LEPSILON=     F    determine dielectric tensor
   LRPA    =     F    only Hartree local field effects (RPA)
   LNABLA  =     F    use nabla operator in PAW spheres
   LVEL    =     F    velocity operator in full k-point grid
   CSHIFT  =0.1000    complex shift for real part using Kramers Kronig
   OMEGAMAX=  -1.0    maximum frequency
   DEG_THRESHOLD= 0.2000000E-02 threshold for treating states as degnerate
   RTIME   =   -0.100 relaxation time in fs
  (WPLASMAI=    0.000 imaginary part of plasma frequency in eV, 0.658/RTIME)
   DFIELD  = 0.0000000 0.0000000 0.0000000 field for delta impulse in time

  Optional k-point grid parameters
   LKPOINTS_OPT  =     F    use optional k-point grid
   KPOINTS_OPT_MODE=     1    mode for optional k-point grid

 Orbital magnetization related:
   ORBITALMAG=     F  switch on orbital magnetization
   LCHIMAG   =     F  perturbation theory with respect to B field
   DQ        =  0.001000  dq finite difference perturbation B field
   LLRAUG    =     F  two centre corrections for induced B field



--------------------------------------------------------------------------------------------------------


 conjugate gradient relaxation of ions
 charge density and potential will be updated during run
 non-spin polarized calculation
 RMM-DIIS sequential band-by-band and
  variant of blocked Davidson during initial phase
 perform sub-space diagonalisation
    before iterative eigenvector-optimisation
 modified Broyden-mixing scheme, WC =      100.0
 initial mixing is a Kerker type mixing with AMIX =  0.4000 and BMIX =      1.0000
 Hartree-type preconditioning will be used
 using additional bands           16
 reciprocal scheme for non local part
 use partial core corrections
 calculate Harris-corrections to forces   (improved forces if not selfconsistent)
 use gradient corrections 
 use of overlap-Matrix (Vanderbilt PP)
 Gauss-broadening in eV      SIGMA  =   0.01


--------------------------------------------------------------------------------------------------------


  energy-cutoff  :      600.00
  volume of cell :      321.17
      direct lattice vectors                 reciprocal lattice vectors
     0.000000000  5.435454681  5.435454681    -0.091988625  0.091988625  0.091988625
     5.435454681  0.000000000  5.435454681     0.091988625 -0.091988625  0.091988625
     5.435454681  5.435454681  0.000000000     0.091988625  0.091988625 -0.091988625

  length of vectors
     7.686893727  7.686893727  7.686893727     0.159328971  0.159328971  0.159328971



 k-points in units of 2pi/SCALE and weight: Regular k-point mesh                    
   0.00000000  0.00000000  0.00000000       0.005
  -0.01533144  0.01533144  0.01533144       0.037
  -0.03066287  0.03066287  0.03066287       0.037
  -0.04599431  0.04599431  0.04599431       0.019
   0.00000000  0.00000000  0.03066287       0.028
  -0.01533144  0.01533144  0.04599431       0.111
  -0.03066287  0.03066287  0.06132575       0.111
   0.04599431 -0.04599431 -0.01533144       0.111
   0.03066287 -0.03066287  0.00000000       0.056
   0.00000000  0.00000000  0.06132575       0.028
  -0.01533144  0.01533144  0.07665719       0.111
   0.06132575 -0.06132575  0.00000000       0.056
   0.00000000  0.00000000  0.09198862       0.014
   0.00000000  0.03066287  0.06132575       0.111
   0.07665719 -0.04599431 -0.01533144       0.111
   0.09198862 -0.06132575  0.00000000       0.056

 k-points in reciprocal lattice and weights: Regular k-point mesh                    
   0.00000000  0.00000000  0.00000000       0.005
   0.16666667  0.00000000  0.00000000       0.037
   0.33333333  0.00000000  0.00000000       0.037
   0.50000000  0.00000000  0.00000000       0.019
   0.16666667  0.16666667  0.00000000       0.028
   0.33333333  0.16666667  0.00000000       0.111
   0.50000000  0.16666667  0.00000000       0.111
  -0.33333333  0.16666667  0.00000000       0.111
  -0.16666667  0.16666667  0.00000000       0.056
   0.33333333  0.33333333  0.00000000       0.028
   0.50000000  0.33333333  0.00000000       0.111
  -0.33333333  0.33333333  0.00000000       0.056
   0.50000000  0.50000000  0.00000000       0.014
   0.50000000  0.33333333  0.16666667       0.111
  -0.33333333  0.33333333  0.16666667       0.111
  -0.33333333  0.50000000  0.16666667       0.056

 position of ions in fractional coordinates (direct lattice) 
   0.12500000  0.12500000  0.12500000
   0.62500000  0.12500000  0.12500000
   0.12500000  0.62500000  0.12500000
   0.62500000  0.62500000  0.12500000
   0.12500000  0.12500000  0.62500000
   0.62500000  0.12500000  0.62500000
   0.12500000  0.62500000  0.62500000
   0.62500000  0.62500000  0.62500000
   0.00000000  0.00000000  0.00000000
   0.50000000  0.00000000  0.00000000
   0.00000000  0.50000000  0.00000000
   0.50000000  0.50000000  0.00000000
   0.00000000  0.00000000  0.50000000
   0.50000000  0.00000000  0.50000000
   0.00000000  0.50000000  0.50000000
   0.50000000  0.50000000  0.50000000

 position of ions in cartesian coordinates  (Angst):
   1.35886367  1.35886367  1.35886367
   1.35886367  4.07659101  4.07659101
   4.07659101  1.35886367  4.07659101
   4.07659101  4.07659101  6.79431835
   4.07659101  4.07659101  1.35886367
   4.07659101  6.79431835  4.07659101
   6.79431835  4.07659101  4.07659101
   6.79431835  6.79431835  6.79431835
   0.00000000  0.00000000  0.00000000
   0.00000000  2.71772734  2.71772734
   2.71772734  0.00000000  2.71772734
   2.71772734  2.71772734  5.43545468
   2.71772734  2.71772734  0.00000000
   2.71772734  5.43545468  2.71772734
   5.43545468  2.71772734  2.71772734
   5.43545468  5.43545468  5.43545468



--------------------------------------------------------------------------------------------------------


 k-point   1 :   0.0000 0.0000 0.0000  plane waves:   10777
 k-point   2 :   0.1667 0.0000 0.0000  plane waves:   10735
 k-point   3 :   0.3333 0.0000 0.0000  plane waves:   10699
 k-point   4 :   0.5000 0.0000 0.0000  plane waves:   10730
 k-point   5 :   0.1667 0.1667 0.0000  plane waves:   10742
 k-point   6 :   0.3333 0.1667 0.0000  plane waves:   10709
 k-point   7 :   0.5000 0.1667 0.0000  plane waves:   10712
 k-point   8 :  -0.3333 0.1667 0.0000  plane waves:   10727
 k-point   9 :  -0.1667 0.1667 0.0000  plane waves:   10739
 k-point  10 :   0.3333 0.3333 0.0000  plane waves:   10706
 k-point  11 :   0.5000 0.3333 0.0000  plane waves:   10693
 k-point  12 :  -0.3333 0.3333 0.0000  plane waves:   10692
 k-point  13 :   0.5000 0.5000 0.0000  plane waves:   10718
 k-point  14 :   0.5000 0.3333 0.1667  plane waves:   10739
 k-point  15 :  -0.3333 0.3333 0.1667  plane waves:   10706
 k-point  16 :  -0.3333 0.5000 0.1667  plane waves:   10712

 maximum and minimum number of plane-waves per node :       695      654

 maximum number of plane-waves:     10777
 maximum index in each direction: 
   IXMAX=   15   IYMAX=   15   IZMAX=   15
   IXMIN=  -15   IYMIN=  -15   IZMIN=  -15


 parallel 3D FFT for wavefunctions:
    minimum data exchange during FFTs selected (reduces bandwidth)
 parallel 3D FFT for charge:
    minimum data exchange during FFTs selected (reduces bandwidth)


 total amount of memory used by VASP MPI-rank0    36369. kBytes
=======================================================================

   base      :      30000. kBytes
   nonl-proj :        890. kBytes
   fftplans  :       2941. kBytes
   grid      :       1454. kBytes
   one-center:          3. kBytes
   wavefun   :       1081. kBytes

     INWAV:  cpu time      0.0000: real time      0.0000
 Broyden mixing: mesh for mixing (old mesh)
   NGX = 31   NGY = 31   NGZ = 31
  (NGX  =128   NGY  =128   NGZ  =128)
  gives a total of  29791 points

 initial charge density was supplied:
 charge density of overlapping atoms calculated
 number of electron      64.0000000 magnetization 
 keeping initial charge density in first step


--------------------------------------------------------------------------------------------------------


 Maximum index for augmentation-charges         3931 (set IRDMAX)


--------------------------------------------------------------------------------------------------------


 First call to EWALD:  gamma=   0.259
 Maximum number of real-space cells 3x 3x 3
 Maximum number of reciprocal cells 3x 3x 3

    FEWALD:  cpu time      0.0049: real time      0.0052
    OFIELD:  cpu time      0.0000: real time      0.0000

  ML FORCE on cell =-STRESS in cart. coord. units (eV/cell)
  Direction    XX          YY          ZZ          XY          YZ          ZX
  --------------------------------------------------------------------------------------
  Total:      0.00000     0.00000     0.00000     0.00000     0.00000     0.00000
  in kB       0.00000     0.00000     0.00000     0.00000     0.00000     0.00000
  external pressure =        0.00 kB  Pullay stress =        0.00 kB

  kinetic pressure (ideal gas correction) =      0.00 kB
  total pressure  =      0.00 kB
  Total+kin.     0.000       0.000       0.000       0.000       0.000       0.000
  volume of cell :      321.17
      direct lattice vectors                 reciprocal lattice vectors
     0.000000000  5.435454681  5.435454681    -0.091988625  0.091988625  0.091988625
     5.435454681  0.000000000  5.435454681     0.091988625 -0.091988625  0.091988625
     5.435454681  5.435454681  0.000000000     0.091988625  0.091988625 -0.091988625

  length of vectors
     7.686893727  7.686893727  7.686893727     0.159328971  0.159328971  0.159328971


  POSITION                                       TOTAL-FORCE (eV/Angst) (ML)
 -----------------------------------------------------------------------------------
      1.35886      1.35886      1.35886         0.000000      0.000000      0.000000
      1.35886      4.07659      4.07659         0.000000      0.000000      0.000000
      4.07659      1.35886      4.07659         0.000000      0.000000      0.000000
      4.07659      4.07659      6.79432         0.000000      0.000000      0.000000
      4.07659      4.07659      1.35886         0.000000      0.000000      0.000000
      4.07659      6.79432      4.07659         0.000000      0.000000      0.000000
      6.79432      4.07659      4.07659         0.000000      0.000000      0.000000
      6.79432      6.79432      6.79432         0.000000      0.000000      0.000000
      0.00000      0.00000      0.00000         0.000000      0.000000      0.000000
      0.00000      2.71773      2.71773         0.000000      0.000000      0.000000
      2.71773      0.00000      2.71773         0.000000      0.000000      0.000000
      2.71773      2.71773      5.43545         0.000000      0.000000      0.000000
      2.71773      2.71773      0.00000         0.000000      0.000000      0.000000
      2.71773      5.43545      2.71773         0.000000      0.000000      0.000000
      5.43545      2.71773      2.71773         0.000000      0.000000      0.000000
      5.43545      5.43545      5.43545         0.000000      0.000000      0.000000
 -----------------------------------------------------------------------------------
    total drift:                                0.000000      0.000000      0.000000


--------------------------------------------------------------------------------------------------------



  ML FREE ENERGIE OF THE ION-ELECTRON SYSTEM (eV)
  ---------------------------------------------------
  free  energy ML TOTEN  =         0.00000000 eV

  ML energy  without entropy=        0.00000000  ML energy(sigma->0) =        0.00000000



--------------------------------------- Iteration      1(   1)  ---------------------------------------


    POTLOK:  cpu time      0.0273: real time      0.0679
    SETDIJ:  cpu time      0.0701: real time      0.0706
     EDDAV:  cpu time      0.5716: real time      0.5738
       DOS:  cpu time      0.0042: real time      0.0043
    --------------------------------------------
      LOOP:  cpu time      0.6732: real time      0.7167

 eigenvalue-minimisations  :  1536
 total energy-change (2. order) : 0.1552219E+03  (-0.2623872E+04)
 number of electron      64.0000000 magnetization 
 augmentation part       64.0000000 magnetization 

 Free energy of the ion-electron system (eV)
  ---------------------------------------------------
  alpha Z        PSCENC =        26.83223427
  Ewald energy   TEWEN  =     -1826.67336943
  -Hartree energ DENC   =       -88.37066599
  -exchange      EXHF   =         0.00000000
  -V(xc)+E(xc)   XCENC  =      -139.72765872
  PAW double counting   =      1399.65656354    -1123.04461034
  entropy T*S    EENTRO =        -0.00026762
  eigenvalues    EBANDS =       265.33771190
  atomic energy  EATOM  =      1641.21197842
  Solvation  Ediel_sol  =         0.00000000
  ---------------------------------------------------
  free energy    TOTEN  =       155.22191603 eV

  energy without entropy =      155.22218365  energy(sigma->0) =      155.22204984


--------------------------------------------------------------------------------------------------------




--------------------------------------- Iteration      1(   2)  ---------------------------------------


     EDDAV:  cpu time      0.6363: real time      0.6367
       DOS:  cpu time      0.0005: real time      0.0005
    --------------------------------------------
      LOOP:  cpu time      0.6369: real time      0.6372

 eigenvalue-minimisations  :  1888
 total energy-change (2. order) :-0.2349897E+03  (-0.2171989E+03)
 number of electron      64.0000000 magnetization 
 augmentation part       64.0000000 magnetization 

 Free energy of the ion-electron system (eV)
  ---------------------------------------------------
  alpha Z        PSCENC =        26.83223427
  Ewald energy   TEWEN  =     -1826.67336943
  -Hartree energ DENC   =       -88.37066599
  -exchange      EXHF   =         0.00000000
  -V(xc)+E(xc)   XCENC  =      -139.72765872
  PAW double counting   =      1399.65656354    -1123.04461034
  entropy T*S    EENTRO =        -0.00000000
  eigenvalues    EBANDS =        30.34772590
  atomic energy  EATOM  =      1641.21197842
  Solvation  Ediel_sol  =         0.00000000
  ---------------------------------------------------
  free energy    TOTEN  =       -79.76780235 eV

  energy without entropy =      -79.76780235  energy(sigma->0) =      -79.76780235


--------------------------------------------------------------------------------------------------------




--------------------------------------- Iteration      1(   3)  ---------------------------------------


     EDDAV:  cpu time      0.6516: real time      0.6691
       DOS:  cpu time      0.0004: real time      0.0004
    --------------------------------------------
      LOOP:  cpu time      0.6520: real time      0.6696

 eigenvalue-minimisations  :  2000
 total energy-change (2. order) :-0.1367741E+02  (-0.1345076E+02)
 number of electron      64.0000000 magnetization 
 augmentation part       64.0000000 magnetization 

 Free energy of the ion-electron system (eV)
  ---------------------------------------------------
  alpha Z        PSCENC =        26.83223427
  Ewald energy   TEWEN  =     -1826.67336943
  -Hartree energ DENC   =       -88.37066599
  -exchange      EXHF   =         0.00000000
  -V(xc)+E(xc)   XCENC  =      -139.72765872
  PAW double counting   =      1399.65656354    -1123.04461034
  entropy T*S    EENTRO =        -0.00000000
  eigenvalues    EBANDS =        16.67031265
  atomic energy  EATOM  =      1641.21197842
  Solvation  Ediel_sol  =         0.00000000
  ---------------------------------------------------
  free energy    TOTEN  =       -93.44521559 eV

  energy without entropy =      -93.44521559  energy(sigma->0) =      -93.44521559


--------------------------------------------------------------------------------------------------------




--------------------------------------- Iteration      1(   4)  ---------------------------------------


     EDDAV:  cpu time      0.6350: real time      0.6525
       DOS:  cpu time      0.0025: real time      0.0025
    --------------------------------------------
      LOOP:  cpu time      0.6375: real time      0.6550

 eigenvalue-minimisations  :  1944
 total energy-change (2. order) :-0.2667552E+00  (-0.2655957E+00)
 number of electron      64.0000000 magnetization 
 augmentation part       64.0000000 magnetization 

 Free energy of the ion-electron system (eV)
  ---------------------------------------------------
  alpha Z        PSCENC =        26.83223427
  Ewald energy   TEWEN  =     -1826.67336943
  -Hartree energ DENC   =       -88.37066599
  -exchange      EXHF   =         0.00000000
  -V(xc)+E(xc)   XCENC  =      -139.72765872
  PAW double counting   =      1399.65656354    -1123.04461034
  entropy T*S    EENTRO =        -0.00000000
  eigenvalues    EBANDS =        16.40355749
  atomic energy  EATOM  =      1641.21197842
  Solvation  Ediel_sol  =         0.00000000
  ---------------------------------------------------
  free energy    TOTEN  =       -93.71197076 eV

  energy without entropy =      -93.71197076  energy(sigma->0) =      -93.71197076


--------------------------------------------------------------------------------------------------------




--------------------------------------- Iteration      1(   5)  ---------------------------------------


     EDDAV:  cpu time      0.6196: real time      0.6326
       DOS:  cpu time      0.0005: real time      0.0004
    CHARGE:  cpu time      0.2661: real time      0.2666
    MIXING:  cpu time      0.0081: real time      0.0082
    --------------------------------------------
      LOOP:  cpu time      0.8942: real time      0.9078

 eigenvalue-minimisations  :  1888
 total energy-change (2. order) :-0.6497397E-02  (-0.6493185E-02)
 number of electron      64.0000000 magnetization 
 augmentation part       -3.7420351 magnetization 

 Broyden mixing:
  rms(total) = 0.14018E+01    rms(broyden)= 0.14018E+01
  rms(prec ) = 0.17998E+01
  weight for this iteration     100.00

 Free energy of the ion-electron system (eV)
  ---------------------------------------------------
  alpha Z        PSCENC =        26.83223427
  Ewald energy   TEWEN  =     -1826.67336943
  -Hartree energ DENC   =       -88.37066599
  -exchange      EXHF   =         0.00000000
  -V(xc)+E(xc)   XCENC  =      -139.72765872
  PAW double counting   =      1399.65656354    -1123.04461034
  entropy T*S    EENTRO =        -0.00000000
  eigenvalues    EBANDS =        16.39706009
  atomic energy  EATOM  =      1641.21197842
  Solvation  Ediel_sol  =         0.00000000
  ---------------------------------------------------
  free energy    TOTEN  =       -93.71846815 eV

  energy without entropy =      -93.71846815  energy(sigma->0) =      -93.71846815


--------------------------------------------------------------------------------------------------------




--------------------------------------- Iteration      1(   6)  ---------------------------------------


    POTLOK:  cpu time      0.0274: real time      0.0423
    SETDIJ:  cpu time      0.0644: real time      0.0644
    EDDIAG:  cpu time      0.1872: real time      0.1876
  RMM-DIIS:  cpu time      0.2917: real time      0.2917
    ORTHCH:  cpu time      0.0137: real time      0.0137
       DOS:  cpu time      0.0005: real time      0.0005
    CHARGE:  cpu time      0.2522: real time      0.2522
    MIXING:  cpu time      0.0026: real time      0.0026
    --------------------------------------------
      LOOP:  cpu time      0.8395: real time      0.8550

 eigenvalue-minimisations  :  1536
 total energy-change (2. order) : 0.1225248E+01  (-0.5444091E-01)
 number of electron      64.0000000 magnetization 
 augmentation part       -3.7015382 magnetization 

 Broyden mixing:
  rms(total) = 0.84182E+00    rms(broyden)= 0.84182E+00
  rms(prec ) = 0.10687E+01
  weight for this iteration     100.00

 eigenvalues of (default mixing * dielectric matrix)
  average eigenvalue GAMMA=   2.4975
  2.4975

 Free energy of the ion-electron system (eV)
  ---------------------------------------------------
  alpha Z        PSCENC =        26.83223427
  Ewald energy   TEWEN  =     -1826.67336943
  -Hartree energ DENC   =       -99.82760882
  -exchange      EXHF   =         0.00000000
  -V(xc)+E(xc)   XCENC  =      -137.92063409
  PAW double counting   =      3074.48082049    -2798.67338888
  entropy T*S    EENTRO =        -0.00000000
  eigenvalues    EBANDS =        28.07674764
  atomic energy  EATOM  =      1641.21197842
  Solvation  Ediel_sol  =         0.00000000
  ---------------------------------------------------
  free energy    TOTEN  =       -92.49322040 eV

  energy without entropy =      -92.49322040  energy(sigma->0) =      -92.49322040


--------------------------------------------------------------------------------------------------------




--------------------------------------- Iteration      1(   7)  ---------------------------------------


    POTLOK:  cpu time      0.0265: real time      0.0426
    SETDIJ:  cpu time      0.0613: real time      0.0613
    EDDIAG:  cpu time      0.1777: real time      0.1777
  RMM-DIIS:  cpu time      0.2838: real time      0.2841
    ORTHCH:  cpu time      0.0136: real time      0.0136
       DOS:  cpu time      0.0005: real time      0.0005
    CHARGE:  cpu time      0.2508: real time      0.2509
    MIXING:  cpu time      0.0007: real time      0.0007
    --------------------------------------------
      LOOP:  cpu time      0.8149: real time      0.8313

 eigenvalue-minimisations  :  1536
 total energy-change (2. order) : 0.5614288E+00  (-0.1288704E+00)
 number of electron      64.0000000 magnetization 
 augmentation part       -3.6479096 magnetization 

 Broyden mixing:
  rms(total) = 0.46281E-01    rms(broyden)= 0.46281E-01
  rms(prec ) = 0.73603E-01
  weight for this iteration     100.00

 eigenvalues of (default mixing * dielectric matrix)
  average eigenvalue GAMMA=   2.2804
  2.2804  2.2804

 Free energy of the ion-electron system (eV)
  ---------------------------------------------------
  alpha Z        PSCENC =        26.83223427
  Ewald energy   TEWEN  =     -1826.67336943
  -Hartree energ DENC   =      -118.32954829
  -exchange      EXHF   =         0.00000000
  -V(xc)+E(xc)   XCENC  =      -134.85348792
  PAW double counting   =      6994.41955320    -6719.69804267
  entropy T*S    EENTRO =        -0.00000000
  eigenvalues    EBANDS =        45.15889083
  atomic energy  EATOM  =      1641.21197842
  Solvation  Ediel_sol  =         0.00000000
  ---------------------------------------------------
  free energy    TOTEN  =       -91.93179159 eV

  energy without entropy =      -91.93179159  energy(sigma->0) =      -91.93179159


--------------------------------------------------------------------------------------------------------




--------------------------------------- Iteration      1(   8)  ---------------------------------------


    POTLOK:  cpu time      0.0287: real time      0.0428
    SETDIJ:  cpu time      0.0625: real time      0.0625
    EDDIAG:  cpu time      0.1779: real time      0.1779
  RMM-DIIS:  cpu time      0.2851: real time      0.2854
    ORTHCH:  cpu time      0.0136: real time      0.0136
       DOS:  cpu time      0.0005: real time      0.0005
    CHARGE:  cpu time      0.2509: real time      0.2509
    MIXING:  cpu time      0.0008: real time      0.0008
    --------------------------------------------
      LOOP:  cpu time      0.8201: real time      0.8345

 eigenvalue-minimisations  :  1542
 total energy-change (2. order) :-0.9972491E-02  (-0.1180187E-01)
 number of electron      64.0000000 magnetization 
 augmentation part       -3.6617413 magnetization 

 Broyden mixing:
  rms(total) = 0.24913E-01    rms(broyden)= 0.24913E-01
  rms(prec ) = 0.31075E-01
  weight for this iteration     100.00

 eigenvalues of (default mixing * dielectric matrix)
  average eigenvalue GAMMA=   2.3842
  2.6057  2.2735  2.2735

 Free energy of the ion-electron system (eV)
  ---------------------------------------------------
  alpha Z        PSCENC =        26.83223427
  Ewald energy   TEWEN  =     -1826.67336943
  -Hartree energ DENC   =      -116.76937048
  -exchange      EXHF   =         0.00000000
  -V(xc)+E(xc)   XCENC  =      -134.95563299
  PAW double counting   =      6951.21191868    -6676.28116514
  entropy T*S    EENTRO =        -0.00000000
  eigenvalues    EBANDS =        43.48164258
  atomic energy  EATOM  =      1641.21197842
  Solvation  Ediel_sol  =         0.00000000
  ---------------------------------------------------
  free energy    TOTEN  =       -91.94176409 eV

  energy without entropy =      -91.94176409  energy(sigma->0) =      -91.94176409


--------------------------------------------------------------------------------------------------------




--------------------------------------- Iteration      1(   9)  ---------------------------------------


    POTLOK:  cpu time      0.0257: real time      0.0428
    SETDIJ:  cpu time      0.0623: real time      0.0623
    EDDIAG:  cpu time      0.1808: real time      0.1808
  RMM-DIIS:  cpu time      0.2909: real time      0.2910
    ORTHCH:  cpu time      0.0137: real time      0.0137
       DOS:  cpu time      0.0005: real time      0.0005
    CHARGE:  cpu time      0.2508: real time      0.2510
    MIXING:  cpu time      0.0007: real time      0.0007
    --------------------------------------------
      LOOP:  cpu time      0.8254: real time      0.8428

 eigenvalue-minimisations  :  1556
 total energy-change (2. order) :-0.3362657E-02  (-0.3485487E-02)
 number of electron      64.0000000 magnetization 
 augmentation part       -3.6595757 magnetization 

 Broyden mixing:
  rms(total) = 0.27087E-01    rms(broyden)= 0.27087E-01
  rms(prec ) = 0.32449E-01
  weight for this iteration     100.00

 eigenvalues of (default mixing * dielectric matrix)
  average eigenvalue GAMMA=   1.9034
  2.6060  2.4372  2.4372  0.1331

 Free energy of the ion-electron system (eV)
  ---------------------------------------------------
  alpha Z        PSCENC =        26.83223427
  Ewald energy   TEWEN  =     -1826.67336943
  -Hartree energ DENC   =      -117.45129314
  -exchange      EXHF   =         0.00000000
  -V(xc)+E(xc)   XCENC  =      -134.86337288
  PAW double counting   =      7027.55764684    -6752.67763769
  entropy T*S    EENTRO =        -0.00000000
  eigenvalues    EBANDS =        44.11868687
  atomic energy  EATOM  =      1641.21197842
  Solvation  Ediel_sol  =         0.00000000
  ---------------------------------------------------
  free energy    TOTEN  =       -91.94512674 eV

  energy without entropy =      -91.94512674  energy(sigma->0) =      -91.94512674


--------------------------------------------------------------------------------------------------------




--------------------------------------- Iteration      1(  10)  ---------------------------------------


    POTLOK:  cpu time      0.0278: real time      0.0416
    SETDIJ:  cpu time      0.0633: real time      0.0633
    EDDIAG:  cpu time      0.1776: real time      0.1776
  RMM-DIIS:  cpu time      0.2925: real time      0.2925
    ORTHCH:  cpu time      0.0136: real time      0.0136
       DOS:  cpu time      0.0005: real time      0.0005
    CHARGE:  cpu time      0.2518: real time      0.2523
    MIXING:  cpu time      0.0011: real time      0.0011
    --------------------------------------------
      LOOP:  cpu time      0.8282: real time      0.8425

 eigenvalue-minimisations  :  1564
 total energy-change (2. order) :-0.5629884E-03  (-0.6086023E-03)
 number of electron      64.0000000 magnetization 
 augmentation part       -3.6615875 magnetization 

 Broyden mixing:
  rms(total) = 0.28064E-01    rms(broyden)= 0.28064E-01
  rms(prec ) = 0.31850E-01
  weight for this iteration     100.00

 eigenvalues of (default mixing * dielectric matrix)
  average eigenvalue GAMMA=   2.2992
  4.4791  2.6941  1.8520  1.8520  0.6187

 Free energy of the ion-electron system (eV)
  ---------------------------------------------------
  alpha Z        PSCENC =        26.83223427
  Ewald energy   TEWEN  =     -1826.67336943
  -Hartree energ DENC   =      -117.38886797
  -exchange      EXHF   =         0.00000000
  -V(xc)+E(xc)   XCENC  =      -134.87060875
  PAW double counting   =      7009.05666610    -6734.17257660
  entropy T*S    EENTRO =        -0.00000000
  eigenvalues    EBANDS =        44.05885422
  atomic energy  EATOM  =      1641.21197842
  Solvation  Ediel_sol  =         0.00000000
  ---------------------------------------------------
  free energy    TOTEN  =       -91.94568973 eV

  energy without entropy =      -91.94568973  energy(sigma->0) =      -91.94568973


--------------------------------------------------------------------------------------------------------




--------------------------------------- Iteration      1(  11)  ---------------------------------------


    POTLOK:  cpu time      0.0314: real time      0.0453
    SETDIJ:  cpu time      0.0641: real time      0.0641
    EDDIAG:  cpu time      0.1914: real time      0.1915
  RMM-DIIS:  cpu time      0.3051: real time      0.3051
    ORTHCH:  cpu time      0.0136: real time      0.0136
       DOS:  cpu time      0.0005: real time      0.0005
    CHARGE:  cpu time      0.2506: real time      0.2506
    MIXING:  cpu time      0.0010: real time      0.0010
    --------------------------------------------
      LOOP:  cpu time      0.8578: real time      0.8717

 eigenvalue-minimisations  :  1536
 total energy-change (2. order) : 0.8548546E-03  (-0.2128715E-03)
 number of electron      64.0000000 magnetization 
 augmentation part       -3.6655095 magnetization 

 Broyden mixing:
  rms(total) = 0.12303E+00    rms(broyden)= 0.12303E+00
  rms(prec ) = 0.12598E+00
  weight for this iteration     100.00

 eigenvalues of (default mixing * dielectric matrix)
  average eigenvalue GAMMA=   2.1472
  5.4336  2.5551  2.3455  1.2302  0.6595  0.6595

 Free energy of the ion-electron system (eV)
  ---------------------------------------------------
  alpha Z        PSCENC =        26.83223427
  Ewald energy   TEWEN  =     -1826.67336943
  -Hartree energ DENC   =      -116.83532765
  -exchange      EXHF   =         0.00000000
  -V(xc)+E(xc)   XCENC  =      -134.90194760
  PAW double counting   =      7195.21198200    -6920.25593791
  entropy T*S    EENTRO =        -0.00000000
  eigenvalues    EBANDS =        43.46555303
  atomic energy  EATOM  =      1641.21197842
  Solvation  Ediel_sol  =         0.00000000
  ---------------------------------------------------
  free energy    TOTEN  =       -91.94483488 eV

  energy without entropy =      -91.94483488  energy(sigma->0) =      -91.94483488


--------------------------------------------------------------------------------------------------------




--------------------------------------- Iteration      1(  12)  ---------------------------------------


    POTLOK:  cpu time      0.0259: real time      0.0424
    SETDIJ:  cpu time      0.0598: real time      0.0604
    EDDIAG:  cpu time      0.1771: real time      0.1771
  RMM-DIIS:  cpu time      0.2827: real time      0.2827
    ORTHCH:  cpu time      0.0137: real time      0.0137
       DOS:  cpu time      0.0005: real time      0.0005
    CHARGE:  cpu time      0.2505: real time      0.2506
    MIXING:  cpu time      0.0012: real time      0.0012
    --------------------------------------------
      LOOP:  cpu time      0.8115: real time      0.8285

 eigenvalue-minimisations  :  1536
 total energy-change (2. order) :-0.9152626E-03  (-0.2120898E-03)
 number of electron      64.0000000 magnetization 
 augmentation part       -3.6637731 magnetization 

 Broyden mixing:
  rms(total) = 0.27318E-01    rms(broyden)= 0.27318E-01
  rms(prec ) = 0.28456E-01
  weight for this iteration     100.00

 eigenvalues of (default mixing * dielectric matrix)
  average eigenvalue GAMMA=   1.5497
  2.8488  2.7588  1.9650  1.1683  0.8396  0.8396  0.4280

 Free energy of the ion-electron system (eV)
  ---------------------------------------------------
  alpha Z        PSCENC =        26.83223427
  Ewald energy   TEWEN  =     -1826.67336943
  -Hartree energ DENC   =      -117.32245439
  -exchange      EXHF   =         0.00000000
  -V(xc)+E(xc)   XCENC  =      -134.86750445
  PAW double counting   =      6891.72264306    -6616.82155569
  entropy T*S    EENTRO =        -0.00000000
  eigenvalues    EBANDS =        43.97227807
  atomic energy  EATOM  =      1641.21197842
  Solvation  Ediel_sol  =         0.00000000
  ---------------------------------------------------
  free energy    TOTEN  =       -91.94575014 eV

  energy without entropy =      -91.94575014  energy(sigma->0) =      -91.94575014


--------------------------------------------------------------------------------------------------------




--------------------------------------- Iteration      1(  13)  ---------------------------------------


    POTLOK:  cpu time      0.0276: real time      0.0431
    SETDIJ:  cpu time      0.0619: real time      0.0620
    EDDIAG:  cpu time      0.1767: real time      0.1770
  RMM-DIIS:  cpu time      0.2832: real time      0.2832
    ORTHCH:  cpu time      0.0136: real time      0.0136
       DOS:  cpu time      0.0005: real time      0.0005
    CHARGE:  cpu time      0.2507: real time      0.2507
    MIXING:  cpu time      0.0010: real time      0.0010
    --------------------------------------------
      LOOP:  cpu time      0.8153: real time      0.8311

 eigenvalue-minimisations  :  1536
 total energy-change (2. order) :-0.9322925E-04  (-0.2084474E-04)
 number of electron      64.0000000 magnetization 
 augmentation part       -3.6640117 magnetization 

 Broyden mixing:
  rms(total) = 0.97002E-02    rms(broyden)= 0.97002E-02
  rms(prec ) = 0.98122E-02
  weight for this iteration     100.00

 eigenvalues of (default mixing * dielectric matrix)
  average eigenvalue GAMMA=   1.5282
  3.0156  2.5795  1.7572  1.7572  0.7668  0.7668  0.7914  0.7914

 Free energy of the ion-electron system (eV)
  ---------------------------------------------------
  alpha Z        PSCENC =        26.83223427
  Ewald energy   TEWEN  =     -1826.67336943
  -Hartree energ DENC   =      -117.14742678
  -exchange      EXHF   =         0.00000000
  -V(xc)+E(xc)   XCENC  =      -134.88507415
  PAW double counting   =      6948.91177443    -6673.99556097
  entropy T*S    EENTRO =        -0.00000000
  eigenvalues    EBANDS =        43.79960085
  atomic energy  EATOM  =      1641.21197842
  Solvation  Ediel_sol  =         0.00000000
  ---------------------------------------------------
  free energy    TOTEN  =       -91.94584337 eV

  energy without entropy =      -91.94584337  energy(sigma->0) =      -91.94584337


--------------------------------------------------------------------------------------------------------




--------------------------------------- Iteration      1(  14)  ---------------------------------------


    POTLOK:  cpu time      0.0261: real time      0.0416
    SETDIJ:  cpu time      0.0623: real time      0.0624
    EDDIAG:  cpu time      0.1771: real time      0.1771
  RMM-DIIS:  cpu time      0.2959: real time      0.2962
    ORTHCH:  cpu time      0.0136: real time      0.0136
       DOS:  cpu time      0.0005: real time      0.0005
    CHARGE:  cpu time      0.2505: real time      0.2506
    MIXING:  cpu time      0.0010: real time      0.0010
    --------------------------------------------
      LOOP:  cpu time      0.8271: real time      0.8429

 eigenvalue-minimisations  :  1598
 total energy-change (2. order) :-0.6842840E-05  (-0.5794110E-05)
 number of electron      64.0000000 magnetization 
 augmentation part       -3.6642018 magnetization 

 Broyden mixing:
  rms(total) = 0.55512E-02    rms(broyden)= 0.55512E-02
  rms(prec ) = 0.56742E-02
  weight for this iteration     100.00

 eigenvalues of (default mixing * dielectric matrix)
  average eigenvalue GAMMA=   1.6146
  2.6625  2.5855  2.5855  1.7870  1.0692  1.0692  1.2246  0.8908  0.6571

 Free energy of the ion-electron system (eV)
  ---------------------------------------------------
  alpha Z        PSCENC =        26.83223427
  Ewald energy   TEWEN  =     -1826.67336943
  -Hartree energ DENC   =      -117.15179593
  -exchange      EXHF   =         0.00000000
  -V(xc)+E(xc)   XCENC  =      -134.88436505
  PAW double counting   =      6936.07432272    -6661.16022588
  entropy T*S    EENTRO =        -0.00000000
  eigenvalues    EBANDS =        43.80537066
  atomic energy  EATOM  =      1641.21197842
  Solvation  Ediel_sol  =         0.00000000
  ---------------------------------------------------
  free energy    TOTEN  =       -91.94585021 eV

  energy without entropy =      -91.94585021  energy(sigma->0) =      -91.94585021


--------------------------------------------------------------------------------------------------------




--------------------------------------- Iteration      1(  15)  ---------------------------------------


    POTLOK:  cpu time      0.0257: real time      0.0435
    SETDIJ:  cpu time      0.0623: real time      0.0623
    EDDIAG:  cpu time      0.1769: real time      0.1769
  RMM-DIIS:  cpu time      0.2999: real time      0.3002
    ORTHCH:  cpu time      0.0138: real time      0.0138
       DOS:  cpu time      0.0004: real time      0.0004
    CHARGE:  cpu time      0.2512: real time      0.2512
    MIXING:  cpu time      0.0010: real time      0.0010
    --------------------------------------------
      LOOP:  cpu time      0.8313: real time      0.8493

 eigenvalue-minimisations  :  1549
 total energy-change (2. order) :-0.1813532E-07  (-0.8980695E-06)
 number of electron      64.0000000 magnetization 
 augmentation part       -3.6642924 magnetization 

 Broyden mixing:
  rms(total) = 0.27876E-02    rms(broyden)= 0.27876E-02
  rms(prec ) = 0.28268E-02
  weight for this iteration     100.00

 eigenvalues of (default mixing * dielectric matrix)
  average eigenvalue GAMMA=   1.5562
  2.7278  2.7278  2.4457  1.5382  1.5382  1.2050  0.9059  0.9059  0.8858  0.6813

 Free energy of the ion-electron system (eV)
  ---------------------------------------------------
  alpha Z        PSCENC =        26.83223427
  Ewald energy   TEWEN  =     -1826.67336943
  -Hartree energ DENC   =      -117.11715763
  -exchange      EXHF   =         0.00000000
  -V(xc)+E(xc)   XCENC  =      -134.88987578
  PAW double counting   =      6906.54505586    -6631.63338063
  entropy T*S    EENTRO =        -0.00000000
  eigenvalues    EBANDS =        43.77866469
  atomic energy  EATOM  =      1641.21197842
  Solvation  Ediel_sol  =         0.00000000
  ---------------------------------------------------
  free energy    TOTEN  =       -91.94585023 eV

  energy without entropy =      -91.94585023  energy(sigma->0) =      -91.94585023


--------------------------------------------------------------------------------------------------------




--------------------------------------- Iteration      1(  16)  ---------------------------------------


    POTLOK:  cpu time      0.0276: real time      0.0433
    SETDIJ:  cpu time      0.0618: real time      0.0618
    EDDIAG:  cpu time      0.1765: real time      0.1765
  RMM-DIIS:  cpu time      0.3028: real time      0.3029
    ORTHCH:  cpu time      0.0136: real time      0.0136
       DOS:  cpu time      0.0005: real time      0.0005
    CHARGE:  cpu time      0.2512: real time      0.2514
    MIXING:  cpu time      0.0012: real time      0.0012
    --------------------------------------------
      LOOP:  cpu time      0.8351: real time      0.8510

 eigenvalue-minimisations  :  1593
 total energy-change (2. order) :-0.8795723E-06  (-0.2412332E-06)
 number of electron      64.0000000 magnetization 
 augmentation part       -3.6642948 magnetization 

 Broyden mixing:
  rms(total) = 0.19403E-02    rms(broyden)= 0.19403E-02
  rms(prec ) = 0.20011E-02
  weight for this iteration     100.00

 eigenvalues of (default mixing * dielectric matrix)
  average eigenvalue GAMMA=   1.5248
  2.6758  2.6758  2.4466  1.9158  1.9158  0.8815  0.8815  1.1535  0.8924  0.7273
  0.6069

 Free energy of the ion-electron system (eV)
  ---------------------------------------------------
  alpha Z        PSCENC =        26.83223427
  Ewald energy   TEWEN  =     -1826.67336943
  -Hartree energ DENC   =      -117.11767232
  -exchange      EXHF   =         0.00000000
  -V(xc)+E(xc)   XCENC  =      -134.88983219
  PAW double counting   =      6908.47915092    -6633.56753059
  entropy T*S    EENTRO =        -0.00000000
  eigenvalues    EBANDS =        43.77918981
  atomic energy  EATOM  =      1641.21197842
  Solvation  Ediel_sol  =         0.00000000
  ---------------------------------------------------
  free energy    TOTEN  =       -91.94585111 eV

  energy without entropy =      -91.94585111  energy(sigma->0) =      -91.94585111


--------------------------------------------------------------------------------------------------------




--------------------------------------- Iteration      1(  17)  ---------------------------------------


    POTLOK:  cpu time      0.0314: real time      0.0439
    SETDIJ:  cpu time      0.0631: real time      0.0632
    EDDIAG:  cpu time      0.1757: real time      0.1757
  RMM-DIIS:  cpu time      0.2834: real time      0.2834
    ORTHCH:  cpu time      0.0138: real time      0.0138
       DOS:  cpu time      0.0005: real time      0.0005
    CHARGE:  cpu time      0.2506: real time      0.2506
    MIXING:  cpu time      0.0012: real time      0.0012
    --------------------------------------------
      LOOP:  cpu time      0.8198: real time      0.8323

 eigenvalue-minimisations  :  1536
 total energy-change (2. order) : 0.1420949E-06  (-0.7766867E-07)
 number of electron      64.0000000 magnetization 
 augmentation part       -3.6643422 magnetization 

 Broyden mixing:
  rms(total) = 0.64927E-04    rms(broyden)= 0.64880E-04
  rms(prec ) = 0.71761E-04
  weight for this iteration     100.00

 eigenvalues of (default mixing * dielectric matrix)
  average eigenvalue GAMMA=   1.6077
  2.5178  2.5178  2.6214  2.6214  2.4289  0.9712  0.9712  1.0765  0.9902  0.9902
  0.9148  0.6706

 Free energy of the ion-electron system (eV)
  ---------------------------------------------------
  alpha Z        PSCENC =        26.83223427
  Ewald energy   TEWEN  =     -1826.67336943
  -Hartree energ DENC   =      -117.10813866
  -exchange      EXHF   =         0.00000000
  -V(xc)+E(xc)   XCENC  =      -134.89047276
  PAW double counting   =      6911.36042921    -6636.44846838
  entropy T*S    EENTRO =        -0.00000000
  eigenvalues    EBANDS =        43.76995637
  atomic energy  EATOM  =      1641.21197842
  Solvation  Ediel_sol  =         0.00000000
  ---------------------------------------------------
  free energy    TOTEN  =       -91.94585097 eV

  energy without entropy =      -91.94585097  energy(sigma->0) =      -91.94585097


--------------------------------------------------------------------------------------------------------




--------------------------------------- Iteration      1(  18)  ---------------------------------------


    POTLOK:  cpu time      0.0293: real time      0.0430
    SETDIJ:  cpu time      0.0614: real time      0.0618
    EDDIAG:  cpu time      0.1758: real time      0.1758
  RMM-DIIS:  cpu time      0.2805: real time      0.2805
    ORTHCH:  cpu time      0.0136: real time      0.0136
       DOS:  cpu time      0.0005: real time      0.0005
    CHARGE:  cpu time      0.2504: real time      0.2504
    MIXING:  cpu time      0.0012: real time      0.0012
    --------------------------------------------
      LOOP:  cpu time      0.8126: real time      0.8269

 eigenvalue-minimisations  :  1510
 total energy-change (2. order) :-0.2303932E-07  (-0.1648753E-07)
 number of electron      64.0000000 magnetization 
 augmentation part       -3.6643577 magnetization 

 Broyden mixing:
  rms(total) = 0.24090E-03    rms(broyden)= 0.24089E-03
  rms(prec ) = 0.24721E-03
  weight for this iteration     100.00

 eigenvalues of (default mixing * dielectric matrix)
  average eigenvalue GAMMA=   1.7035
  2.4259  2.8841  2.8841  2.5197  2.5197  2.4425  0.9608  0.9608  1.0393  1.0393
  0.6669  0.9011  0.9011

 Free energy of the ion-electron system (eV)
  ---------------------------------------------------
  alpha Z        PSCENC =        26.83223427
  Ewald energy   TEWEN  =     -1826.67336943
  -Hartree energ DENC   =      -117.10738099
  -exchange      EXHF   =         0.00000000
  -V(xc)+E(xc)   XCENC  =      -134.89053700
  PAW double counting   =      6911.75098530    -6636.83900046
  entropy T*S    EENTRO =        -0.00000000
  eigenvalues    EBANDS =        43.76923890
  atomic energy  EATOM  =      1641.21197842
  Solvation  Ediel_sol  =         0.00000000
  ---------------------------------------------------
  free energy    TOTEN  =       -91.94585099 eV

  energy without entropy =      -91.94585099  energy(sigma->0) =      -91.94585099


--------------------------------------------------------------------------------------------------------




--------------------------------------- Iteration      1(  19)  ---------------------------------------


    POTLOK:  cpu time      0.0267: real time      0.0413
    SETDIJ:  cpu time      0.0625: real time      0.0625
    EDDIAG:  cpu time      0.1755: real time      0.1757
  RMM-DIIS:  cpu time      0.2191: real time      0.2191
    ORTHCH:  cpu time      0.0142: real time      0.0142
       DOS:  cpu time      0.0005: real time      0.0005
    CHARGE:  cpu time      0.2517: real time      0.2517
    MIXING:  cpu time      0.0013: real time      0.0013
    --------------------------------------------
      LOOP:  cpu time      0.7514: real time      0.7664

 eigenvalue-minimisations  :  1114
 total energy-change (2. order) : 0.1883927E-07  (-0.2282847E-08)
 number of electron      64.0000000 magnetization 
 augmentation part       -3.6643612 magnetization 

 Broyden mixing:
  rms(total) = 0.24146E-03    rms(broyden)= 0.24145E-03
  rms(prec ) = 0.24972E-03
  weight for this iteration     100.00

 eigenvalues of (default mixing * dielectric matrix)
  average eigenvalue GAMMA=   1.5233
  2.7857  2.7857  2.5299  2.5299  2.4555  0.9586  0.9586  0.6670  1.0172  1.0172
  0.9081  0.9081  0.9022  0.9022

 Free energy of the ion-electron system (eV)
  ---------------------------------------------------
  alpha Z        PSCENC =        26.83223427
  Ewald energy   TEWEN  =     -1826.67336943
  -Hartree energ DENC   =      -117.10699595
  -exchange      EXHF   =         0.00000000
  -V(xc)+E(xc)   XCENC  =      -134.89060309
  PAW double counting   =      6911.50691558    -6636.59492109
  entropy T*S    EENTRO =        -0.00000000
  eigenvalues    EBANDS =        43.76891033
  atomic energy  EATOM  =      1641.21197842
  Solvation  Ediel_sol  =         0.00000000
  ---------------------------------------------------
  free energy    TOTEN  =       -91.94585097 eV

  energy without entropy =      -91.94585097  energy(sigma->0) =      -91.94585097


--------------------------------------------------------------------------------------------------------




--------------------------------------- Iteration      1(  20)  ---------------------------------------


    POTLOK:  cpu time      0.0287: real time      0.0429
    SETDIJ:  cpu time      0.0638: real time      0.0638
    EDDIAG:  cpu time      0.1756: real time      0.1756
  RMM-DIIS:  cpu time      0.2009: real time      0.2013
    ORTHCH:  cpu time      0.0137: real time      0.0137
       DOS:  cpu time      0.0005: real time      0.0005
    CHARGE:  cpu time      0.2510: real time      0.2510
    MIXING:  cpu time      0.0016: real time      0.0016
    --------------------------------------------
      LOOP:  cpu time      0.7358: real time      0.7504

 eigenvalue-minimisations  :  1034
 total energy-change (2. order) :-0.2552315E-07  (-0.9945082E-09)
 number of electron      64.0000000 magnetization 
 augmentation part       -3.6643573 magnetization 

 Broyden mixing:
  rms(total) = 0.12450E-03    rms(broyden)= 0.12448E-03
  rms(prec ) = 0.12915E-03
  weight for this iteration     100.00

 eigenvalues of (default mixing * dielectric matrix)
  average eigenvalue GAMMA=   1.6635
  3.2079  3.2079  2.5711  2.4231  2.4231  1.9633  1.9633  0.9625  0.9625  1.0419
  1.0419  0.9139  0.9139  0.6611  0.6943

 Free energy of the ion-electron system (eV)
  ---------------------------------------------------
  alpha Z        PSCENC =        26.83223427
  Ewald energy   TEWEN  =     -1826.67336943
  -Hartree energ DENC   =      -117.10788761
  -exchange      EXHF   =         0.00000000
  -V(xc)+E(xc)   XCENC  =      -134.89053970
  PAW double counting   =      6911.21319992    -6636.30123341
  entropy T*S    EENTRO =        -0.00000000
  eigenvalues    EBANDS =        43.76976654
  atomic energy  EATOM  =      1641.21197842
  Solvation  Ediel_sol  =         0.00000000
  ---------------------------------------------------
  free energy    TOTEN  =       -91.94585100 eV

  energy without entropy =      -91.94585100  energy(sigma->0) =      -91.94585100


--------------------------------------------------------------------------------------------------------




--------------------------------------- Iteration      1(  21)  ---------------------------------------


    POTLOK:  cpu time      0.0306: real time      0.0429
    SETDIJ:  cpu time      0.0633: real time      0.0633
    EDDIAG:  cpu time      0.1788: real time      0.1788
  RMM-DIIS:  cpu time      0.1980: real time      0.1980
    ORTHCH:  cpu time      0.0137: real time      0.0137
       DOS:  cpu time      0.0005: real time      0.0005
    CHARGE:  cpu time      0.2510: real time      0.2515
    MIXING:  cpu time      0.0016: real time      0.0016
    --------------------------------------------
      LOOP:  cpu time      0.7374: real time      0.7502

 eigenvalue-minimisations  :  1016
 total energy-change (2. order) :-0.2333672E-07  (-0.5091957E-09)
 number of electron      64.0000000 magnetization 
 augmentation part       -3.6643532 magnetization 

 Broyden mixing:
  rms(total) = 0.22537E-04    rms(broyden)= 0.22403E-04
  rms(prec ) = 0.22949E-04
  weight for this iteration     100.00

 eigenvalues of (default mixing * dielectric matrix)
  average eigenvalue GAMMA=   1.6183
  3.1620  3.1620  2.6262  2.6262  2.6612  2.3280  0.9635  0.9635  1.2593  1.2593
  1.0862  0.9155  0.9155  0.6730  0.6454  0.6454

 Free energy of the ion-electron system (eV)
  ---------------------------------------------------
  alpha Z        PSCENC =        26.83223427
  Ewald energy   TEWEN  =     -1826.67336943
  -Hartree energ DENC   =      -117.10878863
  -exchange      EXHF   =         0.00000000
  -V(xc)+E(xc)   XCENC  =      -134.89047089
  PAW double counting   =      6911.00585111    -6636.09390386
  entropy T*S    EENTRO =        -0.00000000
  eigenvalues    EBANDS =        43.77061799
  atomic energy  EATOM  =      1641.21197842
  Solvation  Ediel_sol  =         0.00000000
  ---------------------------------------------------
  free energy    TOTEN  =       -91.94585102 eV

  energy without entropy =      -91.94585102  energy(sigma->0) =      -91.94585102


--------------------------------------------------------------------------------------------------------




--------------------------------------- Iteration      1(  22)  ---------------------------------------


    POTLOK:  cpu time      0.0285: real time      0.0432
    SETDIJ:  cpu time      0.0619: real time      0.0619
    EDDIAG:  cpu time      0.1756: real time      0.1756
  RMM-DIIS:  cpu time      0.1747: real time      0.1747
    ORTHCH:  cpu time      0.0139: real time      0.0138
       DOS:  cpu time      0.0004: real time      0.0004
    --------------------------------------------
      LOOP:  cpu time      0.4732: real time      0.4879

 eigenvalue-minimisations  :   785
 total energy-change (2. order) :-0.4766662E-08  (-0.8208210E-10)
 number of electron      64.0000000 magnetization 
 augmentation part       -3.6643532 magnetization 

 Free energy of the ion-electron system (eV)
  ---------------------------------------------------
  alpha Z        PSCENC =        26.83223427
  Ewald energy   TEWEN  =     -1826.67336943
  -Hartree energ DENC   =      -117.10891860
  -exchange      EXHF   =         0.00000000
  -V(xc)+E(xc)   XCENC  =      -134.89046224
  PAW double counting   =      6910.97377645    -6636.06183362
  entropy T*S    EENTRO =        -0.00000000
  eigenvalues    EBANDS =        43.77074373
  atomic energy  EATOM  =      1641.21197842
  Solvation  Ediel_sol  =         0.00000000
  ---------------------------------------------------
  free energy    TOTEN  =       -91.94585102 eV

  energy without entropy =      -91.94585102  energy(sigma->0) =      -91.94585102


--------------------------------------------------------------------------------------------------------




 the core state eigenenergies are
   1-  1s  -1773.9783  2s   -127.9877  2p    -84.0115
   2-  1s  -1773.9783  2s   -127.9877  2p    -84.0115
   3-  1s  -1773.9783  2s   -127.9877  2p    -84.0115
   4-  1s  -1773.9783  2s   -127.9877  2p    -84.0115
   5-  1s  -1773.9783  2s   -127.9877  2p    -84.0115
   6-  1s  -1773.9783  2s   -127.9877  2p    -84.0115
   7-  1s  -1773.9783  2s   -127.9877  2p    -84.0115
   8-  1s  -1773.9783  2s   -127.9877  2p    -84.0115
   9-  1s  -1773.9783  2s   -127.9877  2p    -84.0115
  10-  1s  -1773.9783  2s   -127.9877  2p    -84.0115
  11-  1s  -1773.9783  2s   -127.9877  2p    -84.0115
  12-  1s  -1773.9783  2s   -127.9877  2p    -84.0115
  13-  1s  -1773.9783  2s   -127.9877  2p    -84.0115
  14-  1s  -1773.9783  2s   -127.9877  2p    -84.0115
  15-  1s  -1773.9783  2s   -127.9877  2p    -84.0115
  16-  1s  -1773.9783  2s   -127.9877  2p    -84.0115

 E-fermi :   5.8111     XC(G=0):  -9.5435     alpha+bet :-11.9485

 Fermi energy:         5.8110725996

 k-point     1 :       0.0000    0.0000    0.0000
  band No.  band energies     occupation 
      1      -6.2089      2.00000
      2      -3.8658      2.00000
      3      -3.8658      2.00000
      4      -3.8658      2.00000
      5      -3.8658      2.00000
      6      -2.0576      2.00000
      7      -2.0576      2.00000
      8      -2.0576      2.00000
      9      -2.0576      2.00000
     10      -2.0576      2.00000
     11      -2.0576      2.00000
     12      -1.2393      2.00000
     13      -1.2393      2.00000
     14      -1.2393      2.00000
     15      -1.2393      2.00000
     16       2.8959      2.00000
     17       2.8959      2.00000
     18       2.8959      2.00000
     19       2.8959      2.00000
     20       2.8959      2.00000
     21       2.8959      2.00000
     22       4.5621      2.00000
     23       4.5621      2.00000
     24       4.5621      2.00000
     25       4.5621      2.00000
     26       4.5621      2.00000
     27       4.5621      2.00000
     28       4.5621      2.00000
     29       4.5621      2.00000
     30       5.7633      2.00000
     31       5.7633      2.00000
     32       5.7633      2.00000
     33       6.3578      0.00000
     34       6.3578      0.00000
     35       6.3578      0.00000
     36       6.3578      0.00000
     37       6.3578      0.00000
     38       6.3578      0.00000
     39       7.2197      0.00000
     40       7.2197      0.00000
     41       7.2197      0.00000
     42       7.2197      0.00000
     43       8.2797      0.00000
     44       8.2799      0.00000
     45       8.2802      0.00000
     46       9.0376      0.00000
     47       9.0376      0.00000
     48       9.0527      0.00000

 k-point     2 :       0.1667    0.0000    0.0000
  band No.  band energies     occupation 
      1      -6.1177      2.00000
      2      -4.2039      2.00000
      3      -3.8290      2.00000
      4      -3.8290      2.00000
      5      -3.8290      2.00000
      6      -2.6551      2.00000
      7      -2.6551      2.00000
      8      -2.6551      2.00000
      9      -1.3893      2.00000
     10      -1.3893      2.00000
     11      -1.3893      2.00000
     12      -1.1338      2.00000
     13      -1.1338      2.00000
     14      -1.1338      2.00000
     15      -0.7295      2.00000
     16       2.5620      2.00000
     17       2.5620      2.00000
     18       2.5620      2.00000
     19       2.9720      2.00000
     20       2.9720      2.00000
     21       2.9720      2.00000
     22       3.9677      2.00000
     23       3.9677      2.00000
     24       3.9677      2.00000
     25       4.3823      2.00000
     26       4.3823      2.00000
     27       4.3823      2.00000
     28       4.6116      2.00000
     29       4.6116      2.00000
     30       4.8955      2.00000
     31       5.6179      2.00000
     32       5.6179      2.00000
     33       6.4234      0.00000
     34       6.4234      0.00000
     35       6.4234      0.00000
     36       6.9990      0.00000
     37       6.9990      0.00000
     38       6.9990      0.00000
     39       7.2772      0.00000
     40       7.7378      0.00000
     41       7.7378      0.00000
     42       7.7378      0.00000
     43       8.3150      0.00000
     44       8.4928      0.00000
     45       8.4928      0.00000
     46       8.9548      0.00000
     47       8.9551      0.00000
     48       8.9643      0.00000

 k-point     3 :       0.3333    0.0000    0.0000
  band No.  band energies     occupation 
      1      -5.8471      2.00000
      2      -4.8284      2.00000
      3      -3.7085      2.00000
      4      -3.7085      2.00000
      5      -3.7085      2.00000
      6      -3.1339      2.00000
      7      -3.1339      2.00000
      8      -3.1339      2.00000
      9      -0.8659      2.00000
     10      -0.8659      2.00000
     11      -0.8659      2.00000
     12      -0.8044      2.00000
     13      -0.8044      2.00000
     14      -0.8044      2.00000
     15       0.4052      2.00000
     16       2.0925      2.00000
     17       2.0925      2.00000
     18       2.0925      2.00000
     19       2.9606      2.00000
     20       2.9606      2.00000
     21       2.9606      2.00000
     22       3.1952      2.00000
     23       3.1952      2.00000
     24       3.1952      2.00000
     25       3.3663      2.00000
     26       3.9777      2.00000
     27       3.9777      2.00000
     28       3.9777      2.00000
     29       4.7594      2.00000
     30       4.7594      2.00000
     31       5.3093      2.00000
     32       5.3093      2.00000
     33       6.7169      0.00000
     34       6.7169      0.00000
     35       6.7169      0.00000
     36       7.4467      0.00000
     37       7.7142      0.00000
     38       7.7142      0.00000
     39       7.7142      0.00000
     40       8.0451      0.00000
     41       8.3854      0.00000
     42       8.3854      0.00000
     43       8.3854      0.00000
     44       8.9296      0.00000
     45       8.9297      0.00000
     46       9.2123      0.00000
     47       9.2140      0.00000
     48       9.8087      0.00000

 k-point     4 :       0.5000    0.0000    0.0000
  band No.  band energies     occupation 
      1      -5.4076      2.00000
      2      -5.4076      2.00000
      3      -3.4829      2.00000
      4      -3.4829      2.00000
      5      -3.4829      2.00000
      6      -3.4829      2.00000
      7      -3.4829      2.00000
      8      -3.4829      2.00000
      9      -0.6306      2.00000
     10      -0.6306      2.00000
     11      -0.6306      2.00000
     12      -0.6306      2.00000
     13      -0.6306      2.00000
     14      -0.6306      2.00000
     15       1.8160      2.00000
     16       1.8160      2.00000
     17       2.1928      2.00000
     18       2.1928      2.00000
[...]
  Direction    XX          YY          ZZ          XY          YZ          ZX
  --------------------------------------------------------------------------------------
  Total:     -0.00049    -0.00049    -0.00049     0.00000    -0.00000     0.00000
  in kB      -0.00245    -0.00245    -0.00245     0.00000    -0.00000     0.00000
  external pressure =       -0.00 kB  Pullay stress =        0.00 kB

  kinetic pressure (ideal gas correction) =      0.00 kB
  total pressure  =     -0.00 kB
  Total+kin.    -0.002      -0.002      -0.002       0.000      -0.000       0.000
  volume of cell :      321.17
      direct lattice vectors                 reciprocal lattice vectors
     0.000000000  5.435454794  5.435454794    -0.091988623  0.091988623  0.091988623
     5.435454794  0.000000000  5.435454794     0.091988623 -0.091988623  0.091988623
     5.435454794  5.435454794  0.000000000     0.091988623  0.091988623 -0.091988623

  length of vectors
     7.686893887  7.686893887  7.686893887     0.159328968  0.159328968  0.159328968


  POSITION                                       TOTAL-FORCE (eV/Angst) (ML)
 -----------------------------------------------------------------------------------
      1.35886      1.35886      1.35886        -0.000000      0.000000      0.000000
      1.35886      4.07659      4.07659         0.000000     -0.000000     -0.000000
      4.07659      1.35886      4.07659        -0.000000      0.000000      0.000000
      4.07659      4.07659      6.79432        -0.000000     -0.000000      0.000000
      4.07659      4.07659      1.35886         0.000000      0.000000     -0.000000
      4.07659      6.79432      4.07659         0.000000     -0.000000      0.000000
      6.79432      4.07659      4.07659         0.000000      0.000000     -0.000000
      6.79432      6.79432      6.79432        -0.000000      0.000000     -0.000000
      0.00000      0.00000      0.00000         0.000000      0.000000      0.000000
      0.00000      2.71773      2.71773         0.000000      0.000000     -0.000000
      2.71773      0.00000      2.71773        -0.000000      0.000000     -0.000000
      2.71773      2.71773      5.43545         0.000000     -0.000000      0.000000
      2.71773      2.71773      0.00000        -0.000000     -0.000000     -0.000000
      2.71773      5.43545      2.71773         0.000000      0.000000     -0.000000
      5.43545      2.71773      2.71773         0.000000     -0.000000      0.000000
      5.43545      5.43545      5.43545         0.000000     -0.000000      0.000000
 -----------------------------------------------------------------------------------
    total drift:                               -0.000000     -0.000000     -0.000000


--------------------------------------------------------------------------------------------------------



  ML FREE ENERGIE OF THE ION-ELECTRON SYSTEM (eV)
  ---------------------------------------------------
  free  energy ML TOTEN  =       -91.94585101 eV

  ML energy  without entropy=      -91.94585101  ML energy(sigma->0) =      -91.94585101

     LOOP+:  cpu time      0.0055: real time      0.0279


--------------------------------------------------------------------------------------------------------


    OFIELD:  cpu time      0.0000: real time      0.0000

  ML FORCE on cell =-STRESS in cart. coord. units (eV/cell)
  Direction    XX          YY          ZZ          XY          YZ          ZX
  --------------------------------------------------------------------------------------
  Total:     -0.00049    -0.00049    -0.00049    -0.00000    -0.00000     0.00000
  in kB      -0.00245    -0.00245    -0.00245    -0.00000    -0.00000     0.00000
  external pressure =       -0.00 kB  Pullay stress =        0.00 kB

  kinetic pressure (ideal gas correction) =      0.00 kB
  total pressure  =     -0.00 kB
  Total+kin.    -0.002      -0.002      -0.002      -0.000      -0.000       0.000
  volume of cell :      321.17
      direct lattice vectors                 reciprocal lattice vectors
     0.000000000  5.435454737  5.435454737    -0.091988624  0.091988624  0.091988624
     5.435454737  0.000000000  5.435454737     0.091988624 -0.091988624  0.091988624
     5.435454737  5.435454737  0.000000000     0.091988624  0.091988624 -0.091988624

  length of vectors
     7.686893807  7.686893807  7.686893807     0.159328970  0.159328970  0.159328970


  POSITION                                       TOTAL-FORCE (eV/Angst) (ML)
 -----------------------------------------------------------------------------------
      1.35886      1.35886      1.35886         0.000000     -0.000000      0.000000
      1.35886      4.07659      4.07659        -0.000000     -0.000000      0.000000
      4.07659      1.35886      4.07659        -0.000000     -0.000000     -0.000000
      4.07659      4.07659      6.79432         0.000000      0.000000     -0.000000
      4.07659      4.07659      1.35886         0.000000     -0.000000      0.000000
      4.07659      6.79432      4.07659         0.000000     -0.000000      0.000000
      6.79432      4.07659      4.07659        -0.000000      0.000000     -0.000000
      6.79432      6.79432      6.79432         0.000000      0.000000     -0.000000
      0.00000      0.00000      0.00000         0.000000      0.000000      0.000000
      0.00000      2.71773      2.71773         0.000000     -0.000000     -0.000000
      2.71773      0.00000      2.71773        -0.000000     -0.000000     -0.000000
      2.71773      2.71773      5.43545         0.000000      0.000000     -0.000000
      2.71773      2.71773      0.00000        -0.000000      0.000000      0.000000
      2.71773      5.43545      2.71773        -0.000000     -0.000000      0.000000
      5.43545      2.71773      2.71773        -0.000000      0.000000      0.000000
      5.43545      5.43545      5.43545        -0.000000     -0.000000      0.000000
 -----------------------------------------------------------------------------------
    total drift:                               -0.000000      0.000000      0.000000


--------------------------------------------------------------------------------------------------------



  ML FREE ENERGIE OF THE ION-ELECTRON SYSTEM (eV)
  ---------------------------------------------------
  free  energy ML TOTEN  =       -91.94585101 eV

  ML energy  without entropy=      -91.94585101  ML energy(sigma->0) =      -91.94585101

     LOOP+:  cpu time      0.0054: real time      0.0276


--------------------------------------------------------------------------------------------------------


    OFIELD:  cpu time      0.0000: real time      0.0000

  ML FORCE on cell =-STRESS in cart. coord. units (eV/cell)
  Direction    XX          YY          ZZ          XY          YZ          ZX
  --------------------------------------------------------------------------------------
  Total:     -0.00049    -0.00049    -0.00049    -0.00000     0.00000     0.00000
  in kB      -0.00245    -0.00245    -0.00245    -0.00000     0.00000     0.00000
  external pressure =       -0.00 kB  Pullay stress =        0.00 kB

  kinetic pressure (ideal gas correction) =      0.00 kB
  total pressure  =     -0.00 kB
  Total+kin.    -0.002      -0.002      -0.002      -0.000       0.000       0.000
  volume of cell :      321.17
      direct lattice vectors                 reciprocal lattice vectors
     0.000000000  5.435454709  5.435454709    -0.091988624  0.091988624  0.091988624
     5.435454709  0.000000000  5.435454709     0.091988624 -0.091988624  0.091988624
     5.435454709  5.435454709  0.000000000     0.091988624  0.091988624 -0.091988624

  length of vectors
     7.686893767  7.686893767  7.686893767     0.159328971  0.159328971  0.159328971


  POSITION                                       TOTAL-FORCE (eV/Angst) (ML)
 -----------------------------------------------------------------------------------
      1.35886      1.35886      1.35886         0.000000      0.000000      0.000000
      1.35886      4.07659      4.07659        -0.000000      0.000000     -0.000000
      4.07659      1.35886      4.07659        -0.000000     -0.000000     -0.000000
      4.07659      4.07659      6.79432         0.000000     -0.000000     -0.000000
      4.07659      4.07659      1.35886        -0.000000      0.000000      0.000000
      4.07659      6.79432      4.07659        -0.000000     -0.000000     -0.000000
      6.79432      4.07659      4.07659        -0.000000      0.000000      0.000000
      6.79432      6.79432      6.79432        -0.000000     -0.000000     -0.000000
      0.00000      0.00000      0.00000         0.000000     -0.000000     -0.000000
      0.00000      2.71773      2.71773        -0.000000     -0.000000     -0.000000
      2.71773      0.00000      2.71773         0.000000     -0.000000      0.000000
      2.71773      2.71773      5.43545         0.000000      0.000000     -0.000000
      2.71773      2.71773      0.00000         0.000000      0.000000     -0.000000
      2.71773      5.43545      2.71773        -0.000000      0.000000     -0.000000
      5.43545      2.71773      2.71773        -0.000000      0.000000      0.000000
      5.43545      5.43545      5.43545        -0.000000      0.000000      0.000000
 -----------------------------------------------------------------------------------
    total drift:                                0.000000     -0.000000      0.000000


--------------------------------------------------------------------------------------------------------



  ML FREE ENERGIE OF THE ION-ELECTRON SYSTEM (eV)
  ---------------------------------------------------
  free  energy ML TOTEN  =       -91.94585101 eV

  ML energy  without entropy=      -91.94585101  ML energy(sigma->0) =      -91.94585101

     LOOP+:  cpu time      0.0053: real time      0.0276


--------------------------------------------------------------------------------------------------------


    OFIELD:  cpu time      0.0000: real time      0.0000

  ML FORCE on cell =-STRESS in cart. coord. units (eV/cell)
  Direction    XX          YY          ZZ          XY          YZ          ZX
  --------------------------------------------------------------------------------------
  Total:     -0.00049    -0.00049    -0.00049     0.00000    -0.00000     0.00000
  in kB      -0.00245    -0.00245    -0.00245     0.00000    -0.00000     0.00000
  external pressure =       -0.00 kB  Pullay stress =        0.00 kB

  kinetic pressure (ideal gas correction) =      0.00 kB
  total pressure  =     -0.00 kB
  Total+kin.    -0.002      -0.002      -0.002       0.000      -0.000       0.000
  volume of cell :      321.17
      direct lattice vectors                 reciprocal lattice vectors
     0.000000000  5.435454695  5.435454695    -0.091988624  0.091988624  0.091988624
     5.435454695  0.000000000  5.435454695     0.091988624 -0.091988624  0.091988624
     5.435454695  5.435454695  0.000000000     0.091988624  0.091988624 -0.091988624

  length of vectors
     7.686893747  7.686893747  7.686893747     0.159328971  0.159328971  0.159328971


  POSITION                                       TOTAL-FORCE (eV/Angst) (ML)
 -----------------------------------------------------------------------------------
      1.35886      1.35886      1.35886        -0.000000      0.000000     -0.000000
      1.35886      4.07659      4.07659        -0.000000      0.000000     -0.000000
      4.07659      1.35886      4.07659         0.000000     -0.000000     -0.000000
      4.07659      4.07659      6.79432         0.000000      0.000000      0.000000
      4.07659      4.07659      1.35886        -0.000000     -0.000000      0.000000
      4.07659      6.79432      4.07659        -0.000000      0.000000     -0.000000
      6.79432      4.07659      4.07659        -0.000000      0.000000      0.000000
      6.79432      6.79432      6.79432        -0.000000     -0.000000     -0.000000
      0.00000      0.00000      0.00000        -0.000000     -0.000000      0.000000
      0.00000      2.71773      2.71773         0.000000      0.000000     -0.000000
      2.71773      0.00000      2.71773         0.000000     -0.000000      0.000000
      2.71773      2.71773      5.43545         0.000000     -0.000000      0.000000
      2.71773      2.71773      0.00000         0.000000     -0.000000      0.000000
      2.71773      5.43545      2.71773         0.000000     -0.000000     -0.000000
      5.43545      2.71773      2.71773         0.000000      0.000000     -0.000000
      5.43545      5.43545      5.43545         0.000000     -0.000000      0.000000
 -----------------------------------------------------------------------------------
    total drift:                               -0.000000      0.000000      0.000000


--------------------------------------------------------------------------------------------------------



  ML FREE ENERGIE OF THE ION-ELECTRON SYSTEM (eV)
  ---------------------------------------------------
  free  energy ML TOTEN  =       -91.94585101 eV

  ML energy  without entropy=      -91.94585101  ML energy(sigma->0) =      -91.94585101

     LOOP+:  cpu time      0.0053: real time      0.0275


--------------------------------------------------------------------------------------------------------


    OFIELD:  cpu time      0.0000: real time      0.0000

  ML FORCE on cell =-STRESS in cart. coord. units (eV/cell)
  Direction    XX          YY          ZZ          XY          YZ          ZX
  --------------------------------------------------------------------------------------
  Total:     -0.00049    -0.00049    -0.00049    -0.00000     0.00000    -0.00000
  in kB      -0.00245    -0.00245    -0.00245    -0.00000     0.00000    -0.00000
  external pressure =       -0.00 kB  Pullay stress =        0.00 kB

  kinetic pressure (ideal gas correction) =      0.00 kB
  total pressure  =     -0.00 kB
  Total+kin.    -0.002      -0.002      -0.002      -0.000       0.000      -0.000
  volume of cell :      321.17
      direct lattice vectors                 reciprocal lattice vectors
     0.000000000  5.435454688  5.435454688    -0.091988624  0.091988624  0.091988624
     5.435454688  0.000000000  5.435454688     0.091988624 -0.091988624  0.091988624
     5.435454688  5.435454688  0.000000000     0.091988624  0.091988624 -0.091988624

  length of vectors
     7.686893737  7.686893737  7.686893737     0.159328971  0.159328971  0.159328971


  POSITION                                       TOTAL-FORCE (eV/Angst) (ML)
 -----------------------------------------------------------------------------------
      1.35886      1.35886      1.35886         0.000000     -0.000000     -0.000000
      1.35886      4.07659      4.07659        -0.000000      0.000000      0.000000
      4.07659      1.35886      4.07659         0.000000      0.000000      0.000000
      4.07659      4.07659      6.79432         0.000000     -0.000000      0.000000
      4.07659      4.07659      1.35886        -0.000000      0.000000     -0.000000
      4.07659      6.79432      4.07659        -0.000000      0.000000      0.000000
      6.79432      4.07659      4.07659         0.000000     -0.000000     -0.000000
      6.79432      6.79432      6.79432         0.000000      0.000000      0.000000
      0.00000      0.00000      0.00000         0.000000      0.000000      0.000000
      0.00000      2.71773      2.71773         0.000000     -0.000000     -0.000000
      2.71773      0.00000      2.71773        -0.000000      0.000000     -0.000000
      2.71773      2.71773      5.43545         0.000000     -0.000000     -0.000000
      2.71773      2.71773      0.00000        -0.000000     -0.000000      0.000000
      2.71773      5.43545      2.71773         0.000000      0.000000      0.000000
      5.43545      2.71773      2.71773        -0.000000      0.000000      0.000000
      5.43545      5.43545      5.43545        -0.000000      0.000000     -0.000000
 -----------------------------------------------------------------------------------
    total drift:                               -0.000000     -0.000000      0.000000


--------------------------------------------------------------------------------------------------------



  ML FREE ENERGIE OF THE ION-ELECTRON SYSTEM (eV)
  ---------------------------------------------------
  free  energy ML TOTEN  =       -91.94585101 eV

  ML energy  without entropy=      -91.94585101  ML energy(sigma->0) =      -91.94585101

     LOOP+:  cpu time      0.0052: real time      0.0273


--------------------------------------------------------------------------------------------------------


    OFIELD:  cpu time      0.0000: real time      0.0000

  ML FORCE on cell =-STRESS in cart. coord. units (eV/cell)
  Direction    XX          YY          ZZ          XY          YZ          ZX
  --------------------------------------------------------------------------------------
  Total:     -0.00049    -0.00049    -0.00049     0.00000    -0.00000    -0.00000
  in kB      -0.00245    -0.00245    -0.00245     0.00000    -0.00000    -0.00000
  external pressure =       -0.00 kB  Pullay stress =        0.00 kB

  kinetic pressure (ideal gas correction) =      0.00 kB
  total pressure  =     -0.00 kB
  Total+kin.    -0.002      -0.002      -0.002       0.000      -0.000      -0.000
  volume of cell :      321.17
      direct lattice vectors                 reciprocal lattice vectors
     0.000000000  5.435454681  5.435454681    -0.091988625  0.091988625  0.091988625
     5.435454681  0.000000000  5.435454681     0.091988625 -0.091988625  0.091988625
     5.435454681  5.435454681  0.000000000     0.091988625  0.091988625 -0.091988625

  length of vectors
     7.686893727  7.686893727  7.686893727     0.159328971  0.159328971  0.159328971


  POSITION                                       TOTAL-FORCE (eV/Angst) (ML)
 -----------------------------------------------------------------------------------
      1.35886      1.35886      1.35886         0.000000      0.000000     -0.000000
      1.35886      4.07659      4.07659         0.000000      0.000000      0.000000
      4.07659      1.35886      4.07659        -0.000000     -0.000000      0.000000
      4.07659      4.07659      6.79432        -0.000000      0.000000     -0.000000
      4.07659      4.07659      1.35886        -0.000000      0.000000     -0.000000
      4.07659      6.79432      4.07659        -0.000000      0.000000      0.000000
      6.79432      4.07659      4.07659         0.000000     -0.000000      0.000000
      6.79432      6.79432      6.79432         0.000000      0.000000     -0.000000
      0.00000      0.00000      0.00000        -0.000000      0.000000      0.000000
      0.00000      2.71773      2.71773        -0.000000      0.000000      0.000000
      2.71773      0.00000      2.71773         0.000000     -0.000000     -0.000000
      2.71773      2.71773      5.43545         0.000000     -0.000000     -0.000000
      2.71773      2.71773      0.00000         0.000000      0.000000     -0.000000
      2.71773      5.43545      2.71773         0.000000     -0.000000     -0.000000
      5.43545      2.71773      2.71773        -0.000000      0.000000      0.000000
      5.43545      5.43545      5.43545         0.000000     -0.000000     -0.000000
 -----------------------------------------------------------------------------------
    total drift:                                0.000000      0.000000      0.000000


--------------------------------------------------------------------------------------------------------



  ML FREE ENERGIE OF THE ION-ELECTRON SYSTEM (eV)
  ---------------------------------------------------
  free  energy ML TOTEN  =       -91.94585101 eV

  ML energy  without entropy=      -91.94585101  ML energy(sigma->0) =      -91.94585101

     LOOP+:  cpu time      0.0053: real time      0.0271
