<?xml version="1.0" encoding="ISO-8859-1"?>
<modeling>
 <generator>
  <i name="program" type="string">vasp </i>
  <i name="version" type="string">6.3.0  </i>
  <i name="subversion" type="string">20Jan22 (build Feb 21 2022 11:18:28) complex                          parallel </i>
  <i name="platform" type="string">CrayXC_GCC_OMP </i>
  <i name="date" type="string">2023 10 02 </i>
  <i name="time" type="string">16:41:37 </i>
 </generator>
 <incar>
  <i type="int" name="ISTART">     1</i>
  <i type="string" name="PREC">Accurate  (Precision level)</i>
  <i type="string" name="ALGO">FAST      (SCF minimisation algorithm</i>
  <i type="logical" name="ADDGRID"> T  </i>
  <i type="int" name="ISPIN">     1</i>
  <i type="int" name="INIWAV">     1</i>
  <i type="int" name="NELM">   500</i>
  <i type="int" name="NELMIN">     5</i>
  <i type="int" name="IBRION">     2</i>
  <i name="EDIFF">      0.00000001</i>
  <i name="EDIFFG">     -0.00000010</i>
  <i type="int" name="NSW">   200</i>
  <i type="int" name="ISIF">     7</i>
  <i type="int" name="ISYM">     2</i>
  <i type="int" name="NBLOCK">     1</i>
  <i name="ENMAX">    600.00000000</i>
  <i type="int" name="NEDOS">  1000</i>
  <i type="logical" name="LREAL"> F  </i>
  <i type="logical" name="LPLANE"> T  </i>
  <i type="int" name="ISMEAR">     0</i>
  <i name="SIGMA">      0.01000000</i>
  <i type="int" name="NWRITE">     2</i>
  <i type="int" name="LMAXMIX">     4</i>
  <i type="int" name="LORBIT">    11</i>
  <i type="int" name="ICORELEVEL">     1</i>
  <i type="string" name="GGA">PS     (PBEsol exchange-correlation)</i>
  <i type="logical" name="ML_LMLFF"> T  </i>
 </incar>
 <primitive_cell>
  <structure name="primitive_cell" >
   <crystal>
    <varray name="basis" >
     <v>       0.00000000       2.71772734       2.71772734 </v>
     <v>       2.71772734       0.00000000       2.71772734 </v>
     <v>       2.71772734       2.71772734       0.00000000 </v>
    </varray>
    <i name="volume">     40.14649600 </i>
    <varray name="rec_basis" >
     <v>      -0.18397725       0.18397725       0.18397725 </v>
     <v>       0.18397725      -0.18397725       0.18397725 </v>
     <v>       0.18397725       0.18397725      -0.18397725 </v>
    </varray>
   </crystal>
   <varray name="positions" >
    <v>       0.25000000       0.25000000       0.25000000 </v>
    <v>       0.00000000       0.00000000       0.00000000 </v>
   </varray>
  </structure>
  <varray name="primitive_index" >
   <v type="int" >        1 </v>
   <v type="int" >        9 </v>
  </varray>
 </primitive_cell>
 <kpoints>
  <generation param="Gamma">
   <v type="int" name="divisions">       6        6        6 </v>
   <v name="usershift">      0.00000000       0.00000000       0.00000000 </v>
   <v name="genvec1">      0.16666667       0.00000000      -0.00000000 </v>
   <v name="genvec2">      0.00000000       0.16666667       0.00000000 </v>
   <v name="genvec3">     -0.00000000      -0.00000000       0.16666667 </v>
   <v name="shift">      0.00000000       0.00000000       0.00000000 </v>
  </generation>
  <varray name="kpointlist" >
   <v>       0.00000000       0.00000000       0.00000000 </v>
   <v>       0.16666667       0.00000000       0.00000000 </v>
   <v>       0.33333333       0.00000000       0.00000000 </v>
   <v>       0.50000000       0.00000000       0.00000000 </v>
   <v>       0.16666667       0.16666667       0.00000000 </v>
   <v>       0.33333333       0.16666667       0.00000000 </v>
   <v>       0.50000000       0.16666667       0.00000000 </v>
   <v>      -0.33333333       0.16666667       0.00000000 </v>
   <v>      -0.16666667       0.16666667       0.00000000 </v>
   <v>       0.33333333       0.33333333       0.00000000 </v>
   <v>       0.50000000       0.33333333       0.00000000 </v>
   <v>      -0.33333333       0.33333333       0.00000000 </v>
   <v>       0.50000000       0.50000000       0.00000000 </v>
   <v>       0.50000000       0.33333333       0.16666667 </v>
   <v>      -0.33333333       0.33333333       0.16666667 </v>
   <v>      -0.33333333       0.50000000       0.16666667 </v>
  </varray>
  <varray name="weights" >
   <v>       0.00462963 </v>
   <v>       0.03703704 </v>
   <v>       0.03703704 </v>
   <v>       0.01851852 </v>
   <v>       0.02777778 </v>
   <v>       0.11111111 </v>
   <v>       0.11111111 </v>
   <v>       0.11111111 </v>
   <v>       0.05555556 </v>
   <v>       0.02777778 </v>
   <v>       0.11111111 </v>
   <v>       0.05555556 </v>
   <v>       0.01388889 </v>
   <v>       0.11111111 </v>
   <v>       0.11111111 </v>
   <v>       0.05555556 </v>
  </varray>
 </kpoints>
 <parameters>
  <separator name="general" >
   <i type="string" name="SYSTEM">unknown system</i>
   <i type="logical" name="LCOMPAT"> F  </i>
  </separator>
  <separator name="electronic" >
   <i type="string" name="PREC">accura</i>
   <i name="ENMAX">    600.00000000</i>
   <i name="ENAUG">    322.06900000</i>
   <i name="EDIFF">      0.00000001</i>
   <i type="int" name="IALGO">    68</i>
   <i type="int" name="IWAVPR">    11</i>
   <i type="int" name="NBANDS">    48</i>
   <i type="int" name="NBANDSLOW">    -1</i>
   <i type="int" name="NBANDSHIGH">    -1</i>
   <i name="NELECT">     64.00000000</i>
   <i type="int" name="TURBO">     0</i>
   <i type="int" name="IRESTART">     0</i>
   <i type="int" name="NREBOOT">     0</i>
   <i type="int" name="NMIN">     0</i>
   <i name="EREF">      0.00000000</i>
   <separator name="electronic smearing" >
    <i type="int" name="ISMEAR">     0</i>
    <i name="SIGMA">      0.01000000</i>
    <i name="KSPACING">      0.50000000</i>
    <i type="logical" name="KGAMMA"> T  </i>
    <i type="logical" name="KBLOWUP"> T  </i>
   </separator>
   <separator name="electronic projectors" >
    <i type="logical" name="LREAL"> F  </i>
    <v name="ROPT">      0.00000000</v>
    <i type="int" name="LMAXPAW">  -100</i>
    <i type="int" name="LMAXMIX">     4</i>
    <i type="logical" name="NLSPLINE"> F  </i>
   </separator>
   <separator name="electronic startup" >
    <i type="int" name="ISTART">     0</i>
    <i type="int" name="ICHARG">     2</i>
    <i type="int" name="INIWAV">     1</i>
   </separator>
   <separator name="electronic spin" >
    <i type="int" name="ISPIN">     1</i>
    <i type="logical" name="LNONCOLLINEAR"> F  </i>
    <v name="MAGMOM">      1.00000000      1.00000000      1.00000000      1.00000000      1.00000000      1.00000000      1.00000000      1.00000000      1.00000000      1.00000000      1.00000000      1.00000000      1.00000000      1.00000000      1.00000000      1.00000000</v>
    <i name="NUPDOWN">     -1.00000000</i>
    <i type="logical" name="LSORBIT"> F  </i>
    <v name="SAXIS">      0.00000000      0.00000000      1.00000000</v>
    <i type="logical" name="LSPIRAL"> F  </i>
    <v name="QSPIRAL">      0.00000000      0.00000000      0.00000000</v>
    <i type="logical" name="LZEROZ"> F  </i>
   </separator>
   <separator name="electronic exchange-correlation" >
    <i type="logical" name="LASPH"> F  </i>
    <i type="logical" name="LMETAGGA"> F  </i>
   </separator>
   <separator name="electronic convergence" >
    <i type="int" name="NELM">   500</i>
    <i type="int" name="NELMDL">     0</i>
    <i type="int" name="NELMIN">     5</i>
    <i name="ENINI">    600.00000000</i>
    <separator name="electronic convergence detail" >
     <i type="logical" name="LDIAG"> T  </i>
     <i type="logical" name="LSUBROT"> F  </i>
     <i name="WEIMIN">      0.00100000</i>
     <i name="EBREAK">      0.00000000</i>
     <i name="DEPER">      0.30000000</i>
     <i type="int" name="NRMM">     4</i>
     <i name="TIME">      0.40000000</i>
    </separator>
   </separator>
   <separator name="electronic mixer" >
    <i name="AMIX">      0.40000000</i>
    <i name="BMIX">      1.00000000</i>
    <i name="AMIN">      0.10000000</i>
    <i name="AMIX_MAG">      1.60000000</i>
    <i name="BMIX_MAG">      1.00000000</i>
    <separator name="electronic mixer details" >
     <i type="int" name="IMIX">     4</i>
     <i type="logical" name="MIXFIRST"> F  </i>
     <i type="int" name="MAXMIX">   -45</i>
     <i name="WC">    100.00000000</i>
     <i type="int" name="INIMIX">     1</i>
     <i type="int" name="MIXPRE">     1</i>
     <i type="int" name="MREMOVE">     5</i>
    </separator>
   </separator>
   <separator name="electronic dipolcorrection" >
    <i type="logical" name="LDIPOL"> F  </i>
    <i type="logical" name="LMONO"> F  </i>
    <i type="int" name="IDIPOL">     0</i>
    <i name="EPSILON">      1.00000000</i>
    <v name="DIPOL">   -100.00000000   -100.00000000   -100.00000000</v>
    <i name="EFIELD">      0.00000000</i>
   </separator>
  </separator>
  <separator name="grids" >
   <i type="int" name="NGX">    64</i>
   <i type="int" name="NGY">    64</i>
   <i type="int" name="NGZ">    64</i>
   <i type="int" name="NGXF">   128</i>
   <i type="int" name="NGYF">   128</i>
   <i type="int" name="NGZF">   128</i>
   <i type="logical" name="ADDGRID"> T  </i>
  </separator>
  <separator name="ionic" >
   <i type="int" name="NSW">   200</i>
   <i type="int" name="IBRION">     2</i>
   <i type="int" name="MDALGO">     0</i>
   <i type="int" name="ISIF">     7</i>
   <i name="PSTRESS">      0.00000000</i>
   <i name="EDIFFG">     -0.00000010</i>
   <i type="int" name="NFREE">     1</i>
   <i name="POTIM">      0.50000000</i>
   <i name="SMASS">     -3.00000000</i>
   <i name="SCALEE">      1.00000000</i>
  </separator>
  <separator name="ionic md" >
   <i name="TEBEG">      0.00010000</i>
   <i name="TEEND">      0.00010000</i>
   <i type="int" name="NBLOCK">     1</i>
   <i type="int" name="KBLOCK">   200</i>
   <i type="int" name="NPACO">   256</i>
   <i name="APACO">     10.00000000</i>
  </separator>
  <separator name="symmetry" >
   <i type="int" name="ISYM">     2</i>
   <i name="SYMPREC">      0.00001000</i>
  </separator>
  <separator name="dos" >
   <i type="int" name="LORBIT">    11</i>
   <v name="RWIGS">     -1.00000000</v>
   <i type="int" name="NEDOS">  1000</i>
   <i name="EMIN">     10.00000000</i>
   <i name="EMAX">    -10.00000000</i>
   <i name="EFERMI">      0.00000000</i>
  </separator>
  <separator name="writing" >
   <i type="int" name="NWRITE">     2</i>
   <i type="logical" name="LWAVE"> T  </i>
   <i type="logical" name="LDOWNSAMPLE"> F  </i>
   <i type="logical" name="LCHARG"> T  </i>
   <i type="logical" name="LPARD"> F  </i>
   <i type="logical" name="LVTOT"> F  </i>
   <i type="logical" name="LVHAR"> F  </i>
   <i type="logical" name="LELF"> F  </i>
   <i type="logical" name="LOPTICS"> F  </i>
   <v name="STM">      0.00000000      0.00000000      0.00000000      0.00000000      0.00000000      0.00000000      0.00000000</v>
  </separator>
  <separator name="performance" >
   <i type="int" name="NPAR">     8</i>
   <i type="int" name="NSIM">     4</i>
   <i type="int" name="NBLK">    -1</i>
   <i type="logical" name="LPLANE"> T  </i>
   <i type="logical" name="LSCALAPACK"> T  </i>
   <i type="logical" name="LSCAAWARE"> F  </i>
   <i type="logical" name="LSCALU"> F  </i>
   <i type="logical" name="LASYNC"> F  </i>
   <i type="logical" name="LORBITALREAL"> F  </i>
  </separator>
  <separator name="miscellaneous" >
   <i type="int" name="IDIOT">     3</i>
   <i type="int" name="PHON_NSTRUCT">    -1</i>
   <i type="logical" name="LMUSIC"> F  </i>
   <v name="POMASS">     28.08500000</v>
   <v name="DARWINR">      0.00000000</v>
   <v name="DARWINV">      1.00000000</v>
   <i type="logical" name="LCORR"> T  </i>
  </separator>
  <i type="logical" name="GGA_COMPAT"> T  </i>
  <i type="logical" name="LBERRY"> F  </i>
  <i type="int" name="ICORELEVEL">     1</i>
  <i type="int" name="CLNT">     1</i>
  <i type="int" name="CLN">     1</i>
  <i type="int" name="CLL">     0</i>
  <i name="CLZ">      0.00000000</i>
  <i type="logical" name="LDAU"> F  </i>
  <i type="int" name="I_CONSTRAINED_M">     0</i>
  <separator name="electronic exchange-correlation" >
   <i type="string" name="GGA">PS</i>
   <i type="int" name="VOSKOWN">     0</i>
   <i type="logical" name="LHFCALC"> F  </i>
   <i type="string" name="PRECFOCK"></i>
   <i type="logical" name="LSYMGRAD"> F  </i>
   <i type="logical" name="LHFONE"> F  </i>
   <i type="logical" name="LRHFCALC"> F  </i>
   <i type="logical" name="LTHOMAS"> F  </i>
   <i type="logical" name="LMODELHF"> F  </i>
   <i type="logical" name="LFOCKACE"> F  </i>
   <i name="ENCUT4O">     -1.00000000</i>
   <i type="int" name="EXXOEP">     0</i>
   <i type="int" name="FOURORBIT">     0</i>
   <i name="AEXX">      0.00000000</i>
   <i name="HFALPHA">      0.00000000</i>
   <i name="MCALPHA">      0.00000000</i>
   <i name="ALDAX">      1.00000000</i>
   <i name="AGGAX">      1.00000000</i>
   <i name="ALDAC">      1.00000000</i>
   <i name="AGGAC">      1.00000000</i>
   <i type="int" name="NKREDX">     1</i>
   <i type="int" name="NKREDY">     1</i>
   <i type="int" name="NKREDZ">     1</i>
   <i type="logical" name="SHIFTRED"> F  </i>
   <i type="logical" name="ODDONLY"> F  </i>
   <i type="logical" name="EVENONLY"> F  </i>
   <i type="int" name="LMAXFOCK">     0</i>
   <i type="int" name="NMAXFOCKAE">     0</i>
   <i type="logical" name="LFOCKAEDFT"> F  </i>
   <i name="HFSCREEN">      0.00000000</i>
   <i name="HFSCREENC">      0.00000000</i>
   <i type="int" name="NBANDSGWLOW">     0</i>
  </separator>
  <separator name="vdW DFT" >
   <i type="logical" name="LUSE_VDW"> F  </i>
   <i name="Zab_VDW">     -0.84910000</i>
   <i name="PARAM1">      0.12340000</i>
   <i name="PARAM2">      1.00000000</i>
   <i name="PARAM3">      0.00000000</i>
  </separator>
  <separator name="model GW" >
   <i type="int" name="MODEL_GW">     0</i>
   <i name="MODEL_EPS0">     12.04394880</i>
   <i name="MODEL_ALPHA">      1.00000000</i>
  </separator>
  <separator name="linear response parameters" >
   <i type="logical" name="LEPSILON"> F  </i>
   <i type="logical" name="LRPA"> F  </i>
   <i type="logical" name="LNABLA"> F  </i>
   <i type="logical" name="LVEL"> F  </i>
   <i name="CSHIFT">      0.10000000</i>
   <i name="OMEGAMAX">     -1.00000000</i>
   <i name="DEG_THRESHOLD">      0.00200000</i>
   <i name="RTIME">     -0.10000000</i>
   <i name="WPLASMAI">      0.00000000</i>
   <v name="DFIELD">      0.00000000      0.00000000      0.00000000</v>
   <v name="WPLASMA">      0.00000000      0.00000000      0.00000000      0.00000000      0.00000000      0.00000000      0.00000000      0.00000000      0.00000000</v>
  </separator>
  <separator name="orbital magnetization" >
   <i type="logical" name="NUCIND"> F  </i>
   <v name="MAGPOS">      0.00000000      0.00000000      0.00000000</v>
   <i type="logical" name="LNICSALL"> T  </i>
   <i type="logical" name="ORBITALMAG"> F  </i>
   <i type="logical" name="LMAGBLOCH"> F  </i>
   <i type="logical" name="LCHIMAG"> F  </i>
   <i type="logical" name="LGAUGE"> T  </i>
   <i type="int" name="MAGATOM">     0</i>
   <v name="MAGDIPOL">      0.00000000      0.00000000      0.00000000</v>
   <v name="AVECCONST">      0.00000000      0.00000000      0.00000000</v>
  </separator>
  <separator name="response functions" >
   <i type="logical" name="LFINITE_TEMPERATURE"> F  </i>
   <i type="logical" name="LADDER"> F  </i>
   <i type="logical" name="LRPAFORCE"> F  </i>
   <i type="logical" name="LFXC"> F  </i>
   <i type="logical" name="LHARTREE"> T  </i>
   <i type="int" name="IBSE">     0</i>
   <v type="int" name="KPOINT">    -1     0     0     0</v>
   <i type="logical" name="LTCTC"> F  </i>
   <i type="logical" name="LTCTE"> F  </i>
   <i type="logical" name="LTETE"> F  </i>
   <i type="logical" name="LTRIPLET"> F  </i>
   <i type="logical" name="LFXCEPS"> F  </i>
   <i type="logical" name="LFXHEG"> F  </i>
   <i type="int" name="NATURALO">     2</i>
   <i type="logical" name="LHOLEGF"> F  </i>
   <i type="logical" name="L2ORDER"> F  </i>
   <i type="logical" name="LDMP1"> F  </i>
   <i type="logical" name="LMP2LT"> F  </i>
   <i type="logical" name="LSMP2LT"> F  </i>
   <i type="logical" name="LGWLF"> F  </i>
   <i name="ENCUTGW">     -2.00000000</i>
   <i name="ENCUTGWSOFT">     -2.00000000</i>
   <i name="ENCUTLF">     -1.00000000</i>
   <i type="logical" name="LESF_SPLINES"> F  </i>
   <i type="int" name="LMAXMP2">    -1</i>
   <i name="SCISSOR">      0.00000000</i>
   <i type="int" name="NOMEGA">     0</i>
   <i type="int" name="NOMEGAR">     0</i>
   <i type="int" name="NBANDSGW">    -1</i>
   <i type="int" name="NBANDSO">    -1</i>
   <i type="int" name="NBANDSV">    -1</i>
   <i type="int" name="NELMGW">     1</i>
   <i type="int" name="NELMHF">     1</i>
   <i type="int" name="DIM">     3</i>
   <i type="int" name="IESPILON">     4</i>
   <i type="int" name="ANTIRES">     0</i>
   <i name="OMEGAMAX">    -30.00000000</i>
   <i name="OMEGAMIN">    -30.00000000</i>
   <i name="OMEGATL">   -200.00000000</i>
   <i type="int" name="OMEGAGRID">     0</i>
   <i name="CSHIFT">     -0.10000000</i>
   <i type="logical" name="LSELFENERGY"> F  </i>
   <i type="logical" name="LSPECTRAL"> F  </i>
   <i type="logical" name="LSPECTRALGW"> F  </i>
   <i type="logical" name="LSINGLES"> F  </i>
   <i type="logical" name="LFERMIGW"> F  </i>
   <i type="logical" name="ODDONLYGW"> F  </i>
   <i type="logical" name="EVENONLYGW"> F  </i>
   <i type="int" name="NKREDLFX">     1</i>
   <i type="int" name="NKREDLFY">     1</i>
   <i type="int" name="NKREDLFZ">     1</i>
   <i type="int" name="MAXMEM">  2800</i>
   <i type="int" name="TELESCOPE">     0</i>
   <i type="int" name="NTAUPAR">    -1</i>
   <i type="int" name="NOMEGAPAR">    -1</i>
   <i name="DAMP_NEWTON">      0.80000001</i>
   <i name="LAMBDA">      1.00000000</i>
  </separator>
  <separator name="External order field" >
   <i name="OFIELD_KAPPA">      0.00000000</i>
   <v name="OFIELD_K">      0.00000000      0.00000000      0.00000000</v>
   <i name="OFIELD_Q6_NEAR">      0.00000000</i>
   <i name="OFIELD_Q6_FAR">      0.00000000</i>
   <i name="OFIELD_A">      0.00000000</i>
  </separator>
  <separator name="optional k-points parameters" >
   <i type="int" name="KPOINTS_OPT_MODE">     1</i>
   <i type="logical" name="LKPOINTS_OPT"> F  </i>
  </separator>
 </parameters>
 <atominfo>
  <atoms>      16 </atoms>
  <types>       1 </types>
  <array name="atoms" >
   <dimension dim="1">ion</dimension>
   <field type="string">element</field>
   <field type="int">atomtype</field>
   <set>
    <rc><c>Si</c><c>   1</c></rc>
    <rc><c>Si</c><c>   1</c></rc>
    <rc><c>Si</c><c>   1</c></rc>
    <rc><c>Si</c><c>   1</c></rc>
    <rc><c>Si</c><c>   1</c></rc>
    <rc><c>Si</c><c>   1</c></rc>
    <rc><c>Si</c><c>   1</c></rc>
    <rc><c>Si</c><c>   1</c></rc>
    <rc><c>Si</c><c>   1</c></rc>
    <rc><c>Si</c><c>   1</c></rc>
    <rc><c>Si</c><c>   1</c></rc>
    <rc><c>Si</c><c>   1</c></rc>
    <rc><c>Si</c><c>   1</c></rc>
    <rc><c>Si</c><c>   1</c></rc>
    <rc><c>Si</c><c>   1</c></rc>
    <rc><c>Si</c><c>   1</c></rc>
   </set>
  </array>
  <array name="atomtypes" >
   <dimension dim="1">type</dimension>
   <field type="int">atomspertype</field>
   <field type="string">element</field>
   <field>mass</field>
   <field>valence</field>
   <field type="string">pseudopotential</field>
   <set>
    <rc><c>  16</c><c>Si</c><c>     28.08500000</c><c>      4.00000000</c><c>  PAW_PBE Si 05Jan2001                  </c></rc>
   </set>
  </array>
 </atominfo>
 <structure name="initialpos" >
  <crystal>
   <varray name="basis" >
    <v>       0.00000000       5.43545468       5.43545468 </v>
    <v>       5.43545468       0.00000000       5.43545468 </v>
    <v>       5.43545468       5.43545468       0.00000000 </v>
   </varray>
   <i name="volume">    321.17196797 </i>
   <varray name="rec_basis" >
    <v>      -0.09198862       0.09198862       0.09198862 </v>
    <v>       0.09198862      -0.09198862       0.09198862 </v>
    <v>       0.09198862       0.09198862      -0.09198862 </v>
   </varray>
  </crystal>
  <varray name="positions" >
   <v>       0.12500000       0.12500000       0.12500000 </v>
   <v>       0.62500000       0.12500000       0.12500000 </v>
   <v>       0.12500000       0.62500000       0.12500000 </v>
   <v>       0.62500000       0.62500000       0.12500000 </v>
   <v>       0.12500000       0.12500000       0.62500000 </v>
   <v>       0.62500000       0.12500000       0.62500000 </v>
   <v>       0.12500000       0.62500000       0.62500000 </v>
   <v>       0.62500000       0.62500000       0.62500000 </v>
   <v>       0.00000000       0.00000000       0.00000000 </v>
   <v>       0.50000000       0.00000000       0.00000000 </v>
   <v>       0.00000000       0.50000000       0.00000000 </v>
   <v>       0.50000000       0.50000000       0.00000000 </v>
   <v>       0.00000000       0.00000000       0.50000000 </v>
   <v>       0.50000000       0.00000000       0.50000000 </v>
   <v>       0.00000000       0.50000000       0.50000000 </v>
   <v>       0.50000000       0.50000000       0.50000000 </v>
  </varray>
 </structure>
 <calculation>
  <scstep>
   <time name="dav">    0.57    0.57</time>
   <time name="total">    0.67    0.72</time>
   <energy>
    <i name="alphaZ">     26.83223427 </i>
    <i name="ewald">  -1826.67336943 </i>
    <i name="hartreedc">    -88.37066599 </i>
    <i name="XCdc">   -139.72765872 </i>
    <i name="pawpsdc">   1399.65656354 </i>
    <i name="pawaedc">  -1123.04461034 </i>
    <i name="eentropy">     -0.00026762 </i>
    <i name="bandstr">    265.33771190 </i>
    <i name="atom">   1641.21197842 </i>
    <i name="e_fr_energy">    155.22191603 </i>
    <i name="e_wo_entrp">    155.22218365 </i>
    <i name="e_0_energy">    155.22204984 </i>
   </energy>
  </scstep>
  <scstep>
   <time name="dav">    0.64    0.64</time>
   <time name="total">    0.64    0.64</time>
   <energy>
    <i name="e_fr_energy">    -79.76780235 </i>
    <i name="e_wo_entrp">    -79.76780235 </i>
    <i name="e_0_energy">    -79.76780235 </i>
   </energy>
  </scstep>
  <scstep>
   <time name="dav">    0.65    0.67</time>
   <time name="total">    0.65    0.67</time>
   <energy>
    <i name="e_fr_energy">    -93.44521559 </i>
    <i name="e_wo_entrp">    -93.44521559 </i>
    <i name="e_0_energy">    -93.44521559 </i>
   </energy>
  </scstep>
  <scstep>
   <time name="dav">    0.63    0.65</time>
   <time name="total">    0.64    0.65</time>
   <energy>
    <i name="e_fr_energy">    -93.71197076 </i>
    <i name="e_wo_entrp">    -93.71197076 </i>
    <i name="e_0_energy">    -93.71197076 </i>
   </energy>
  </scstep>
  <scstep>
   <time name="dav">    0.62    0.63</time>
   <time name="total">    0.89    0.91</time>
   <energy>
    <i name="e_fr_energy">    -93.71846815 </i>
    <i name="e_wo_entrp">    -93.71846815 </i>
    <i name="e_0_energy">    -93.71846815 </i>
   </energy>
  </scstep>
  <scstep>
   <time name="diag">    0.19    0.19</time>
   <time name="diis">    0.29    0.29</time>
   <time name="orth">    0.01    0.01</time>
   <time name="total">    0.84    0.85</time>
   <energy>
    <i name="e_fr_energy">    -92.49322040 </i>
    <i name="e_wo_entrp">    -92.49322040 </i>
    <i name="e_0_energy">    -92.49322040 </i>
   </energy>
  </scstep>
  <scstep>
   <time name="diag">    0.18    0.18</time>
   <time name="diis">    0.28    0.28</time>
   <time name="orth">    0.01    0.01</time>
   <time name="total">    0.81    0.83</time>
   <energy>
    <i name="e_fr_energy">    -91.93179159 </i>
    <i name="e_wo_entrp">    -91.93179159 </i>
    <i name="e_0_energy">    -91.93179159 </i>
   </energy>
  </scstep>
  <scstep>
   <time name="diag">    0.18    0.18</time>
   <time name="diis">    0.29    0.29</time>
   <time name="orth">    0.01    0.01</time>
   <time name="total">    0.82    0.83</time>
   <energy>
    <i name="e_fr_energy">    -91.94176409 </i>
    <i name="e_wo_entrp">    -91.94176409 </i>
    <i name="e_0_energy">    -91.94176409 </i>
   </energy>
  </scstep>
  <scstep>
   <time name="diag">    0.18    0.18</time>
   <time name="diis">    0.29    0.29</time>
   <time name="orth">    0.01    0.01</time>
   <time name="total">    0.83    0.84</time>
   <energy>
    <i name="e_fr_energy">    -91.94512674 </i>
    <i name="e_wo_entrp">    -91.94512674 </i>
    <i name="e_0_energy">    -91.94512674 </i>
   </energy>
  </scstep>
  <scstep>
   <time name="diag">    0.18    0.18</time>
   <time name="diis">    0.29    0.29</time>
   <time name="orth">    0.01    0.01</time>
   <time name="total">    0.83    0.84</time>
   <energy>
    <i name="e_fr_energy">    -91.94568973 </i>
    <i name="e_wo_entrp">    -91.94568973 </i>
    <i name="e_0_energy">    -91.94568973 </i>
   </energy>
  </scstep>
  <scstep>
   <time name="diag">    0.19    0.19</time>
   <time name="diis">    0.31    0.31</time>
   <time name="orth">    0.01    0.01</time>
   <time name="total">    0.86    0.87</time>
   <energy>
    <i name="e_fr_energy">    -91.94483488 </i>
    <i name="e_wo_entrp">    -91.94483488 </i>
    <i name="e_0_energy">    -91.94483488 </i>
   </energy>
  </scstep>
  <scstep>
   <time name="diag">    0.18    0.18</time>
   <time name="diis">    0.28    0.28</time>
   <time name="orth">    0.01    0.01</time>
   <time name="total">    0.81    0.83</time>
   <energy>
    <i name="e_fr_energy">    -91.94575014 </i>
    <i name="e_wo_entrp">    -91.94575014 </i>
    <i name="e_0_energy">    -91.94575014 </i>
   </energy>
  </scstep>
  <scstep>
   <time name="diag">    0.18    0.18</time>
   <time name="diis">    0.28    0.28</time>
   <time name="orth">    0.01    0.01</time>
   <time name="total">    0.82    0.83</time>
   <energy>
    <i name="e_fr_energy">    -91.94584337 </i>
    <i name="e_wo_entrp">    -91.94584337 </i>
    <i name="e_0_energy">    -91.94584337 </i>
   </energy>
  </scstep>
  <scstep>
   <time name="diag">    0.18    0.18</time>
   <time name="diis">    0.30    0.30</time>
   <time name="orth">    0.01    0.01</time>
   <time name="total">    0.83    0.84</time>
   <energy>
    <i name="e_fr_energy">    -91.94585021 </i>
    <i name="e_wo_entrp">    -91.94585021 </i>
    <i name="e_0_energy">    -91.94585021 </i>
   </energy>
  </scstep>
  <scstep>
   <time name="diag">    0.18    0.18</time>
   <time name="diis">    0.30    0.30</time>
   <time name="orth">    0.01    0.01</time>
   <time name="total">    0.83    0.85</time>
   <energy>
    <i name="e_fr_energy">    -91.94585023 </i>
    <i name="e_wo_entrp">    -91.94585023 </i>
    <i name="e_0_energy">    -91.94585023 </i>
   </energy>
  </scstep>
  <scstep>
   <time name="diag">    0.18    0.18</time>
   <time name="diis">    0.30    0.30</time>
   <time name="orth">    0.01    0.01</time>
   <time name="total">    0.84    0.85</time>
   <energy>
    <i name="e_fr_energy">    -91.94585111 </i>
    <i name="e_wo_entrp">    -91.94585111 </i>
    <i name="e_0_energy">    -91.94585111 </i>
   </energy>
  </scstep>
  <scstep>
   <time name="diag">    0.18    0.18</time>
   <time name="diis">    0.28    0.28</time>
   <time name="orth">    0.01    0.01</time>
   <time name="total">    0.82    0.83</time>
   <energy>
    <i name="e_fr_energy">    -91.94585097 </i>
    <i name="e_wo_entrp">    -91.94585097 </i>
    <i name="e_0_energy">    -91.94585097 </i>
   </energy>
  </scstep>
  <scstep>
   <time name="diag">    0.18    0.18</time>
   <time name="diis">    0.28    0.28</time>
   <time name="orth">    0.01    0.01</time>
   <time name="total">    0.81    0.83</time>
   <energy>
    <i name="e_fr_energy">    -91.94585099 </i>
    <i name="e_wo_entrp">    -91.94585099 </i>
    <i name="e_0_energy">    -91.94585099 </i>
   </energy>
  </scstep>
  <scstep>
   <time name="diag">    0.18    0.18</time>
   <time name="diis">    0.22    0.22</time>
   <time name="orth">    0.01    0.01</time>
   <time name="total">    0.75    0.77</time>
   <energy>
    <i name="e_fr_energy">    -91.94585097 </i>
    <i name="e_wo_entrp">    -91.94585097 </i>
    <i name="e_0_energy">    -91.94585097 </i>
   </energy>
  </scstep>
  <scstep>
   <time name="diag">    0.18    0.18</time>
   <time name="diis">    0.20    0.20</time>
   <time name="orth">    0.01    0.01</time>
   <time name="total">    0.74    0.75</time>
   <energy>
    <i name="e_fr_energy">    -91.94585100 </i>
    <i name="e_wo_entrp">    -91.94585100 </i>
    <i name="e_0_energy">    -91.94585100 </i>
   </energy>
  </scstep>
  <scstep>
   <time name="diag">    0.18    0.18</time>
   <time name="diis">    0.20    0.20</time>
   <time name="orth">    0.01    0.01</time>
   <time name="total">    0.74    0.75</time>
   <energy>
    <i name="e_fr_energy">    -91.94585102 </i>
    <i name="e_wo_entrp">    -91.94585102 </i>
    <i name="e_0_energy">    -91.94585102 </i>
   </energy>
  </scstep>
  <scstep>
   <time name="diag">    0.18    0.18</time>
   <time name="diis">    0.17    0.17</time>
   <time name="orth">    0.01    0.01</time>
   <time name="total">    0.47    0.49</time>
   <energy>
    <i name="alphaZ">     26.83223427 </i>
    <i name="ewald">  -1826.67336943 </i>
    <i name="hartreedc">   -117.10891860 </i>
    <i name="XCdc">   -134.89046224 </i>
    <i name="pawpsdc">   6910.97377645 </i>
    <i name="pawaedc">  -6636.06183362 </i>
    <i name="eentropy">     -0.00000000 </i>
    <i name="bandstr">     43.77074373 </i>
    <i name="atom">   1641.21197842 </i>
    <i name="e_fr_energy">    -91.94585102 </i>
    <i name="e_wo_entrp">    -91.94585102 </i>
    <i name="e_0_energy">    -91.94585102 </i>
   </energy>
  </scstep>
  <structure>
   <crystal>
    <varray name="basis" >
     <v>       0.00000000       5.43545468       5.43545468 </v>
     <v>       5.43545468       0.00000000       5.43545468 </v>
     <v>       5.43545468       5.43545468       0.00000000 </v>
    </varray>
    <i name="volume">    321.17196797 </i>
    <varray name="rec_basis" >
     <v>      -0.09198862       0.09198862       0.09198862 </v>
     <v>       0.09198862      -0.09198862       0.09198862 </v>
     <v>       0.09198862       0.09198862      -0.09198862 </v>
    </varray>
   </crystal>
   <varray name="positions" >
    <v>       0.12500000       0.12500000       0.12500000 </v>
    <v>       0.62500000       0.12500000       0.12500000 </v>
    <v>       0.12500000       0.62500000       0.12500000 </v>
    <v>       0.62500000       0.62500000       0.12500000 </v>
    <v>       0.12500000       0.12500000       0.62500000 </v>
    <v>       0.62500000       0.12500000       0.62500000 </v>
    <v>       0.12500000       0.62500000       0.62500000 </v>
    <v>       0.62500000       0.62500000       0.62500000 </v>
    <v>       0.00000000       0.00000000       0.00000000 </v>
    <v>       0.50000000       0.00000000       0.00000000 </v>
    <v>       0.00000000       0.50000000       0.00000000 </v>
    <v>       0.50000000       0.50000000       0.00000000 </v>
    <v>       0.00000000       0.00000000       0.50000000 </v>
    <v>       0.50000000       0.00000000       0.50000000 </v>
    <v>       0.00000000       0.50000000       0.50000000 </v>
    <v>       0.50000000       0.50000000       0.50000000 </v>
   </varray>
  </structure>
  <varray name="forces" >
   <v>       0.00000000      -0.00000000       0.00000000 </v>
   <v>       0.00000000       0.00000000       0.00000000 </v>
   <v>       0.00000000       0.00000000       0.00000000 </v>
   <v>       0.00000000       0.00000000       0.00000000 </v>
   <v>       0.00000000       0.00000000       0.00000000 </v>
   <v>       0.00000000       0.00000000       0.00000000 </v>
   <v>       0.00000000       0.00000000       0.00000000 </v>
   <v>       0.00000000       0.00000000       0.00000000 </v>
   <v>      -0.00000000       0.00000000      -0.00000000 </v>
   <v>      -0.00000000      -0.00000000      -0.00000000 </v>
   <v>      -0.00000000      -0.00000000      -0.00000000 </v>
   <v>      -0.00000000      -0.00000000      -0.00000000 </v>
   <v>      -0.00000000      -0.00000000      -0.00000000 </v>
   <v>      -0.00000000      -0.00000000      -0.00000000 </v>
   <v>      -0.00000000      -0.00000000      -0.00000000 </v>
   <v>      -0.00000000      -0.00000000      -0.00000000 </v>
  </varray>
  <varray name="stress" >
   <v>       0.16268444       0.00000000       0.00000000 </v>
   <v>       0.00000000       0.16268444       0.00000000 </v>
   <v>      -0.00000000       0.00000000       0.16268444 </v>
  </varray>
  <energy>
   <i name="e_fr_energy">    -91.94585102 </i>
   <i name="e_wo_entrp">    -91.94585102 </i>
   <i name="e_0_energy">    -91.94585102 </i>
  </energy>
  <time name="totalsc">   22.63   23.85</time>
 </calculation>
 <calculation>
  <scstep>
   <time name="dav">    0.57    0.57</time>
   <time name="total">    0.90    0.90</time>
   <energy>
    <i name="alphaZ">     26.82432062 </i>
    <i name="ewald">  -1826.49377103 </i>
    <i name="hartreedc">   -117.09743840 </i>
    <i name="XCdc">   -134.90113794 </i>
    <i name="pawpsdc">   6910.96947936 </i>
    <i name="pawaedc">  -6636.05753848 </i>
    <i name="eentropy">     -0.00000000 </i>
    <i name="bandstr">     43.59825050 </i>
    <i name="atom">   1641.21197842 </i>
    <i name="e_fr_energy">    -91.94585695 </i>
    <i name="e_wo_entrp">    -91.94585695 </i>
    <i name="e_0_energy">    -91.94585695 </i>
   </energy>
  </scstep>
  <scstep>
   <time name="diag">    0.18    0.18</time>
   <time name="diis">    0.28    0.28</time>
   <time name="orth">    0.01    0.01</time>
   <time name="total">    0.81    0.83</time>
   <energy>
    <i name="e_fr_energy">    -91.94585380 </i>
    <i name="e_wo_entrp">    -91.94585380 </i>
    <i name="e_0_energy">    -91.94585380 </i>
   </energy>
  </scstep>
  <scstep>
   <time name="diag">    0.18    0.18</time>
   <time name="diis">    0.32    0.32</time>
   <time name="orth">    0.02    0.02</time>
   <time name="total">    0.90    0.92</time>
   <energy>
    <i name="e_fr_energy">    -91.94585127 </i>
    <i name="e_wo_entrp">    -91.94585127 </i>
    <i name="e_0_energy">    -91.94585127 </i>
   </energy>
  </scstep>
  <scstep>
   <time name="diag">    0.18    0.18</time>
   <time name="diis">    0.29    0.29</time>
   <time name="orth">    0.01    0.01</time>
   <time name="total">    0.82    0.84</time>
   <energy>
    <i name="e_fr_energy">    -91.94585118 </i>
    <i name="e_wo_entrp">    -91.94585118 </i>
    <i name="e_0_energy">    -91.94585118 </i>
   </energy>
  </scstep>
  <scstep>
   <time name="diag">    0.18    0.18</time>
   <time name="diis">    0.26    0.26</time>
   <time name="orth">    0.01    0.01</time>
   <time name="total">    0.79    0.80</time>
   <energy>
    <i name="e_fr_energy">    -91.94585106 </i>
    <i name="e_wo_entrp">    -91.94585106 </i>
    <i name="e_0_energy">    -91.94585106 </i>
   </energy>
  </scstep>
  <scstep>
   <time name="diag">    0.18    0.18</time>
   <time name="diis">    0.19    0.19</time>
   <time name="orth">    0.01    0.01</time>
   <time name="total">    0.73    0.74</time>
   <energy>
    <i name="e_fr_energy">    -91.94585083 </i>
    <i name="e_wo_entrp">    -91.94585083 </i>
    <i name="e_0_energy">    -91.94585083 </i>
   </energy>
  </scstep>
  <scstep>
   <time name="diag">    0.18    0.18</time>
   <time name="diis">    0.19    0.19</time>
   <time name="orth">    0.01    0.01</time>
   <time name="total">    0.49    0.51</time>
   <energy>
    <i name="alphaZ">     26.82432062 </i>
    <i name="ewald">  -1826.49377103 </i>
    <i name="hartreedc">   -117.13650544 </i>
    <i name="XCdc">   -134.90055043 </i>
    <i name="pawpsdc">   6906.61676651 </i>
    <i name="pawaedc">  -6631.70301648 </i>
    <i name="eentropy">     -0.00000000 </i>
    <i name="bandstr">     43.63492700 </i>
    <i name="atom">   1641.21197842 </i>
    <i name="e_fr_energy">    -91.94585084 </i>
    <i name="e_wo_entrp">    -91.94585084 </i>
    <i name="e_0_energy">    -91.94585084 </i>
   </energy>
  </scstep>
  <structure>
   <crystal>
    <varray name="basis" >
     <v>       0.00000000       5.43598915       5.43598915 </v>
     <v>       5.43598915       0.00000000       5.43598915 </v>
     <v>       5.43598915       5.43598915       0.00000000 </v>
    </varray>
    <i name="volume">    321.26671942 </i>
    <varray name="rec_basis" >
     <v>      -0.09197958       0.09197958       0.09197958 </v>
     <v>       0.09197958      -0.09197958       0.09197958 </v>
     <v>       0.09197958       0.09197958      -0.09197958 </v>
    </varray>
   </crystal>
   <varray name="positions" >
    <v>       0.12500000       0.12500000       0.12500000 </v>
    <v>       0.62500000       0.12500000       0.12500000 </v>
    <v>       0.12500000       0.62500000       0.12500000 </v>
    <v>       0.62500000       0.62500000       0.12500000 </v>
    <v>       0.12500000       0.12500000       0.62500000 </v>
    <v>       0.62500000       0.12500000       0.62500000 </v>
    <v>       0.12500000       0.62500000       0.62500000 </v>
    <v>       0.62500000       0.62500000       0.62500000 </v>
    <v>       0.00000000       0.00000000       0.00000000 </v>
    <v>       0.50000000       0.00000000       0.00000000 </v>
    <v>       0.00000000       0.50000000       0.00000000 </v>
    <v>       0.50000000       0.50000000       0.00000000 </v>
    <v>       0.00000000       0.00000000       0.50000000 </v>
    <v>       0.50000000       0.00000000       0.50000000 </v>
    <v>       0.00000000       0.50000000       0.50000000 </v>
    <v>       0.50000000       0.50000000       0.50000000 </v>
   </varray>
  </structure>
  <varray name="forces" >
   <v>      -0.00000000      -0.00000000      -0.00000000 </v>
   <v>       0.00000000       0.00000000      -0.00000000 </v>
   <v>       0.00000000      -0.00000000      -0.00000000 </v>
   <v>       0.00000000       0.00000000      -0.00000000 </v>
   <v>       0.00000000       0.00000000      -0.00000000 </v>
   <v>       0.00000000      -0.00000000      -0.00000000 </v>
   <v>       0.00000000       0.00000000      -0.00000000 </v>
   <v>      -0.00000000       0.00000000      -0.00000000 </v>
   <v>       0.00000000       0.00000000       0.00000000 </v>
   <v>      -0.00000000      -0.00000000       0.00000000 </v>
   <v>      -0.00000000       0.00000000       0.00000000 </v>
   <v>      -0.00000000      -0.00000000       0.00000000 </v>
   <v>       0.00000000      -0.00000000       0.00000000 </v>
   <v>       0.00000000       0.00000000       0.00000000 </v>
   <v>      -0.00000000      -0.00000000       0.00000000 </v>
   <v>      -0.00000000      -0.00000000       0.00000000 </v>
  </varray>
  <varray name="stress" >
   <v>      -0.11366927       0.00000000       0.00000000 </v>
   <v>      -0.00000000      -0.11366927      -0.00000000 </v>
   <v>      -0.00000000       0.00000000      -0.11366927 </v>
  </varray>
  <energy>
   <i name="e_fr_energy">    -91.94585084 </i>
   <i name="e_wo_entrp">    -91.94585084 </i>
   <i name="e_0_energy">    -91.94585084 </i>
  </energy>
  <time name="totalsc">    7.80    8.10</time>
 </calculation>
 <structure>
  <crystal>
   <varray name="basis" >
    <v>       0.00000000       5.43569045       5.43569045 </v>
    <v>       5.43569045       0.00000000       5.43569045 </v>
    <v>       5.43569045       5.43569045       0.00000000 </v>
   </varray>
   <i name="volume">    321.21376263 </i>
   <varray name="rec_basis" >
    <v>      -0.09198463       0.09198463       0.09198463 </v>
    <v>       0.09198463      -0.09198463       0.09198463 </v>
    <v>       0.09198463       0.09198463      -0.09198463 </v>
   </varray>
  </crystal>
  <varray name="positions" >
   <v>       0.12500000       0.12500000       0.12500000 </v>
   <v>       0.62500000       0.12500000       0.12500000 </v>
   <v>       0.12500000       0.62500000       0.12500000 </v>
   <v>       0.62500000       0.62500000       0.12500000 </v>
   <v>       0.12500000       0.12500000       0.62500000 </v>
   <v>       0.62500000       0.12500000       0.62500000 </v>
   <v>       0.12500000       0.62500000       0.62500000 </v>
   <v>       0.62500000       0.62500000       0.62500000 </v>
   <v>       0.00000000       0.00000000       0.00000000 </v>
   <v>       0.50000000       0.00000000       0.00000000 </v>
   <v>       0.00000000       0.50000000       0.00000000 </v>
   <v>       0.50000000       0.50000000       0.00000000 </v>
   <v>       0.00000000       0.00000000       0.50000000 </v>
   <v>       0.50000000       0.00000000       0.50000000 </v>
   <v>       0.00000000       0.50000000       0.50000000 </v>
   <v>       0.50000000       0.50000000       0.50000000 </v>
  </varray>
 </structure>
 <varray name="forces" >
  <v>       0.00000000      -0.00000000       0.00000000 </v>
  <v>       0.00000000      -0.00000000       0.00000000 </v>
  <v>       0.00000000       0.00000000      -0.00000000 </v>
  <v>       0.00000000       0.00000000       0.00000000 </v>
  <v>      -0.00000000      -0.00000000       0.00000000 </v>
  <v>      -0.00000000      -0.00000000       0.00000000 </v>
  <v>      -0.00000000       0.00000000       0.00000000 </v>
  <v>       0.00000000       0.00000000       0.00000000 </v>
  <v>      -0.00000000      -0.00000000       0.00000000 </v>
  <v>      -0.00000000       0.00000000      -0.00000000 </v>
  <v>      -0.00000000      -0.00000000       0.00000000 </v>
  <v>      -0.00000000      -0.00000000      -0.00000000 </v>
  <v>       0.00000000      -0.00000000      -0.00000000 </v>
  <v>       0.00000000       0.00000000      -0.00000000 </v>
  <v>       0.00000000      -0.00000000      -0.00000000 </v>
  <v>      -0.00000000      -0.00000000      -0.00000000 </v>
 </varray>
 <varray name="stress" >
  <v>      -0.00245199      -0.00000000       0.00000000 </v>
  <v>      -0.00000000      -0.00245199       0.00000000 </v>
  <v>       0.00000000       0.00000000      -0.00245199 </v>
 </varray>
 <energy>
  <i name="e_fr_energy">    -91.94585094 </i>
  <i name="e_wo_entrp">    -91.94585094 </i>
  <i name="e_0_energy">    -91.94585094 </i>
 </energy>
 <time name="totalsc">    0.01    0.03</time>
 <structure>
  <crystal>
   <varray name="basis" >
    <v>       0.00000000       5.43568694       5.43568694 </v>
    <v>       5.43568694       0.00000000       5.43568694 </v>
    <v>       5.43568694       5.43568694       0.00000000 </v>
   </varray>
   <i name="volume">    321.21314195 </i>
   <varray name="rec_basis" >
    <v>      -0.09198469       0.09198469       0.09198469 </v>
    <v>       0.09198469      -0.09198469       0.09198469 </v>
    <v>       0.09198469       0.09198469      -0.09198469 </v>
   </varray>
  </crystal>
  <varray name="positions" >
   <v>       0.12500000       0.12500000       0.12500000 </v>
   <v>       0.62500000       0.12500000       0.12500000 </v>
   <v>       0.12500000       0.62500000       0.12500000 </v>
   <v>       0.62500000       0.62500000       0.12500000 </v>
   <v>       0.12500000       0.12500000       0.62500000 </v>
   <v>       0.62500000       0.12500000       0.62500000 </v>
   <v>       0.12500000       0.62500000       0.62500000 </v>
   <v>       0.62500000       0.62500000       0.62500000 </v>
   <v>       0.00000000       0.00000000       0.00000000 </v>
   <v>       0.50000000       0.00000000       0.00000000 </v>
   <v>       0.00000000       0.50000000       0.00000000 </v>
   <v>       0.50000000       0.50000000       0.00000000 </v>
   <v>       0.00000000       0.00000000       0.50000000 </v>
   <v>       0.50000000       0.00000000       0.50000000 </v>
   <v>       0.00000000       0.50000000       0.50000000 </v>
   <v>       0.50000000       0.50000000       0.50000000 </v>
  </varray>
 </structure>
 <varray name="forces" >
  <v>       0.00000000       0.00000000       0.00000000 </v>
  <v>       0.00000000       0.00000000      -0.00000000 </v>
  <v>       0.00000000       0.00000000       0.00000000 </v>
  <v>       0.00000000       0.00000000      -0.00000000 </v>
  <v>       0.00000000      -0.00000000      -0.00000000 </v>
  <v>      -0.00000000      -0.00000000       0.00000000 </v>
  <v>       0.00000000      -0.00000000      -0.00000000 </v>
  <v>      -0.00000000      -0.00000000       0.00000000 </v>
  <v>      -0.00000000      -0.00000000      -0.00000000 </v>
  <v>      -0.00000000      -0.00000000       0.00000000 </v>
  <v>      -0.00000000      -0.00000000       0.00000000 </v>
  <v>      -0.00000000      -0.00000000      -0.00000000 </v>
  <v>      -0.00000000       0.00000000      -0.00000000 </v>
  <v>      -0.00000000       0.00000000      -0.00000000 </v>
  <v>      -0.00000000      -0.00000000       0.00000000 </v>
  <v>       0.00000000       0.00000000      -0.00000000 </v>
 </varray>
 <varray name="stress" >
  <v>      -0.00245199       0.00000000       0.00000000 </v>
  <v>       0.00000000      -0.00245199       0.00000000 </v>
  <v>       0.00000000       0.00000000      -0.00245199 </v>
 </varray>
 <energy>
  <i name="e_fr_energy">    -91.94585094 </i>
  <i name="e_wo_entrp">    -91.94585094 </i>
  <i name="e_0_energy">    -91.94585094 </i>
 </energy>
 <time name="totalsc">    0.01    0.03</time>
 <structure>
  <crystal>
   <varray name="basis" >
    <v>       0.00000000       5.43557081       5.43557081 </v>
    <v>       5.43557081       0.00000000       5.43557081 </v>
    <v>       5.43557081       5.43557081       0.00000000 </v>
   </varray>
   <i name="volume">    321.19255452 </i>
   <varray name="rec_basis" >
    <v>      -0.09198666       0.09198666       0.09198666 </v>
    <v>       0.09198666      -0.09198666       0.09198666 </v>
    <v>       0.09198666       0.09198666      -0.09198666 </v>
   </varray>
  </crystal>
  <varray name="positions" >
   <v>       0.12500000       0.12500000       0.12500000 </v>
   <v>       0.62500000       0.12500000       0.12500000 </v>
   <v>       0.12500000       0.62500000       0.12500000 </v>
   <v>       0.62500000       0.62500000       0.12500000 </v>
   <v>       0.12500000       0.12500000       0.62500000 </v>
   <v>       0.62500000       0.12500000       0.62500000 </v>
   <v>       0.12500000       0.62500000       0.62500000 </v>
   <v>       0.62500000       0.62500000       0.62500000 </v>
   <v>       0.00000000       0.00000000       0.00000000 </v>
   <v>       0.50000000       0.00000000       0.00000000 </v>
   <v>       0.00000000       0.50000000       0.00000000 </v>
   <v>       0.50000000       0.50000000       0.00000000 </v>
   <v>       0.00000000       0.00000000       0.50000000 </v>
   <v>       0.50000000       0.00000000       0.50000000 </v>
   <v>       0.00000000       0.50000000       0.50000000 </v>
   <v>       0.50000000       0.50000000       0.50000000 </v>
  </varray>
 </structure>
 <varray name="forces" >
  <v>      -0.00000000      -0.00000000       0.00000000 </v>
  <v>      -0.00000000      -0.00000000      -0.00000000 </v>
  <v>      -0.00000000      -0.00000000      -0.00000000 </v>
  <v>      -0.00000000      -0.00000000      -0.00000000 </v>
  <v>      -0.00000000      -0.00000000      -0.00000000 </v>
  <v>      -0.00000000      -0.00000000      -0.00000000 </v>
  <v>      -0.00000000      -0.00000000      -0.00000000 </v>
  <v>      -0.00000000      -0.00000000      -0.00000000 </v>
  <v>       0.00000000       0.00000000      -0.00000000 </v>
  <v>       0.00000000       0.00000000       0.00000000 </v>
  <v>       0.00000000       0.00000000       0.00000000 </v>
  <v>       0.00000000       0.00000000       0.00000000 </v>
  <v>       0.00000000       0.00000000       0.00000000 </v>
  <v>       0.00000000       0.00000000       0.00000000 </v>
  <v>       0.00000000       0.00000000       0.00000000 </v>
  <v>       0.00000000       0.00000000       0.00000000 </v>
 </varray>
 <varray name="stress" >
  <v>      -0.00245206      -0.00000000      -0.00000000 </v>
  <v>      -0.00000000      -0.00245206       0.00000000 </v>
  <v>      -0.00000000       0.00000000      -0.00245206 </v>
 </varray>
 <energy>
  <i name="e_fr_energy">    -91.94585097 </i>
  <i name="e_wo_entrp">    -91.94585097 </i>
  <i name="e_0_energy">    -91.94585097 </i>
 </energy>
 <time name="totalsc">    0.01    0.03</time>
 <structure>
  <crystal>
   <varray name="basis" >
    <v>       0.00000000       5.43551275       5.43551275 </v>
    <v>       5.43551275       0.00000000       5.43551275 </v>
    <v>       5.43551275       5.43551275       0.00000000 </v>
   </varray>
   <i name="volume">    321.18226114 </i>
   <varray name="rec_basis" >
    <v>      -0.09198764       0.09198764       0.09198764 </v>
    <v>       0.09198764      -0.09198764       0.09198764 </v>
    <v>       0.09198764       0.09198764      -0.09198764 </v>
   </varray>
  </crystal>
  <varray name="positions" >
   <v>       0.12500000       0.12500000       0.12500000 </v>
   <v>       0.62500000       0.12500000       0.12500000 </v>
   <v>       0.12500000       0.62500000       0.12500000 </v>
   <v>       0.62500000       0.62500000       0.12500000 </v>
   <v>       0.12500000       0.12500000       0.62500000 </v>
   <v>       0.62500000       0.12500000       0.62500000 </v>
   <v>       0.12500000       0.62500000       0.62500000 </v>
   <v>       0.62500000       0.62500000       0.62500000 </v>
   <v>       0.00000000       0.00000000       0.00000000 </v>
   <v>       0.50000000       0.00000000       0.00000000 </v>
   <v>       0.00000000       0.50000000       0.00000000 </v>
   <v>       0.50000000       0.50000000       0.00000000 </v>
   <v>       0.00000000       0.00000000       0.50000000 </v>
   <v>       0.50000000       0.00000000       0.50000000 </v>
   <v>       0.00000000       0.50000000       0.50000000 </v>
   <v>       0.50000000       0.50000000       0.50000000 </v>
  </varray>
 </structure>
 <varray name="forces" >
  <v>      -0.00000000      -0.00000000       0.00000000 </v>
  <v>      -0.00000000      -0.00000000       0.00000000 </v>
  <v>      -0.00000000      -0.00000000       0.00000000 </v>
  <v>       0.00000000       0.00000000       0.00000000 </v>
  <v>       0.00000000       0.00000000      -0.00000000 </v>
  <v>       0.00000000       0.00000000       0.00000000 </v>
  <v>       0.00000000       0.00000000       0.00000000 </v>
  <v>       0.00000000       0.00000000       0.00000000 </v>
  <v>       0.00000000       0.00000000      -0.00000000 </v>
  <v>       0.00000000       0.00000000      -0.00000000 </v>
  <v>       0.00000000       0.00000000      -0.00000000 </v>
  <v>      -0.00000000      -0.00000000      -0.00000000 </v>
  <v>      -0.00000000      -0.00000000       0.00000000 </v>
  <v>      -0.00000000      -0.00000000      -0.00000000 </v>
  <v>      -0.00000000      -0.00000000      -0.00000000 </v>
  <v>       0.00000000      -0.00000000      -0.00000000 </v>
 </varray>
 <varray name="stress" >
  <v>      -0.00245209       0.00000000      -0.00000000 </v>
  <v>       0.00000000      -0.00245209       0.00000000 </v>
  <v>      -0.00000000       0.00000000      -0.00245209 </v>
 </varray>
 <energy>
  <i name="e_fr_energy">    -91.94585099 </i>
  <i name="e_wo_entrp">    -91.94585099 </i>
  <i name="e_0_energy">    -91.94585099 </i>
 </energy>
 <time name="totalsc">    0.01    0.03</time>
 <structure>
  <crystal>
   <varray name="basis" >
    <v>       0.00000000       5.43548371       5.43548371 </v>
    <v>       5.43548371       0.00000000       5.43548371 </v>
    <v>       5.43548371       5.43548371       0.00000000 </v>
   </varray>
   <i name="volume">    321.17711453 </i>
   <varray name="rec_basis" >
    <v>      -0.09198813       0.09198813       0.09198813 </v>
    <v>       0.09198813      -0.09198813       0.09198813 </v>
    <v>       0.09198813       0.09198813      -0.09198813 </v>
   </varray>
  </crystal>
  <varray name="positions" >
   <v>       0.12500000       0.12500000       0.12500000 </v>
   <v>       0.62500000       0.12500000       0.12500000 </v>
   <v>       0.12500000       0.62500000       0.12500000 </v>
   <v>       0.62500000       0.62500000       0.12500000 </v>
   <v>       0.12500000       0.12500000       0.62500000 </v>
   <v>       0.62500000       0.12500000       0.62500000 </v>
   <v>       0.12500000       0.62500000       0.62500000 </v>
   <v>       0.62500000       0.62500000       0.62500000 </v>
   <v>       0.00000000       0.00000000       0.00000000 </v>
   <v>       0.50000000       0.00000000       0.00000000 </v>
   <v>       0.00000000       0.50000000       0.00000000 </v>
   <v>       0.50000000       0.50000000       0.00000000 </v>
   <v>       0.00000000       0.00000000       0.50000000 </v>
   <v>       0.50000000       0.00000000       0.50000000 </v>
   <v>       0.00000000       0.50000000       0.50000000 </v>
   <v>       0.50000000       0.50000000       0.50000000 </v>
  </varray>
 </structure>
 <varray name="forces" >
  <v>       0.00000000      -0.00000000       0.00000000 </v>
  <v>       0.00000000       0.00000000       0.00000000 </v>
  <v>       0.00000000       0.00000000       0.00000000 </v>
  <v>       0.00000000       0.00000000       0.00000000 </v>
  <v>       0.00000000       0.00000000       0.00000000 </v>
  <v>       0.00000000       0.00000000       0.00000000 </v>
  <v>       0.00000000       0.00000000       0.00000000 </v>
  <v>       0.00000000       0.00000000       0.00000000 </v>
  <v>      -0.00000000       0.00000000      -0.00000000 </v>
  <v>      -0.00000000      -0.00000000      -0.00000000 </v>
  <v>      -0.00000000      -0.00000000      -0.00000000 </v>
  <v>      -0.00000000      -0.00000000      -0.00000000 </v>
  <v>      -0.00000000      -0.00000000      -0.00000000 </v>
  <v>      -0.00000000      -0.00000000      -0.00000000 </v>
  <v>      -0.00000000      -0.00000000      -0.00000000 </v>
  <v>      -0.00000000      -0.00000000      -0.00000000 </v>
 </varray>
 <varray name="stress" >
  <v>      -0.00245210       0.00000000       0.00000000 </v>
  <v>       0.00000000      -0.00245210       0.00000000 </v>
  <v>       0.00000000       0.00000000      -0.00245210 </v>
 </varray>
 <energy>
  <i name="e_fr_energy">    -91.94585100 </i>
  <i name="e_wo_entrp">    -91.94585100 </i>
  <i name="e_0_energy">    -91.94585100 </i>
 </energy>
 <time name="totalsc">    0.01    0.03</time>
 <structure>
  <crystal>
   <varray name="basis" >
    <v>       0.00000000       5.43546920       5.43546920 </v>
    <v>       5.43546920       0.00000000       5.43546920 </v>
    <v>       5.43546920       5.43546920       0.00000000 </v>
   </varray>
   <i name="volume">    321.17454124 </i>
   <varray name="rec_basis" >
    <v>      -0.09198838       0.09198838       0.09198838 </v>
    <v>       0.09198838      -0.09198838       0.09198838 </v>
    <v>       0.09198838       0.09198838      -0.09198838 </v>
   </varray>
  </crystal>
  <varray name="positions" >
   <v>       0.12500000       0.12500000       0.12500000 </v>
   <v>       0.62500000       0.12500000       0.12500000 </v>
   <v>       0.12500000       0.62500000       0.12500000 </v>
   <v>       0.62500000       0.62500000       0.12500000 </v>
   <v>       0.12500000       0.12500000       0.62500000 </v>
   <v>       0.62500000       0.12500000       0.62500000 </v>
   <v>       0.12500000       0.62500000       0.62500000 </v>
   <v>       0.62500000       0.62500000       0.62500000 </v>
   <v>       0.00000000       0.00000000       0.00000000 </v>
   <v>       0.50000000       0.00000000       0.00000000 </v>
   <v>       0.00000000       0.50000000       0.00000000 </v>
   <v>       0.50000000       0.50000000       0.00000000 </v>
   <v>       0.00000000       0.00000000       0.50000000 </v>
   <v>       0.50000000       0.00000000       0.50000000 </v>
   <v>       0.00000000       0.50000000       0.50000000 </v>
   <v>       0.50000000       0.50000000       0.50000000 </v>
  </varray>
 </structure>
 <varray name="forces" >
  <v>       0.00000000       0.00000000       0.00000000 </v>
  <v>       0.00000000       0.00000000       0.00000000 </v>
  <v>       0.00000000       0.00000000       0.00000000 </v>
  <v>       0.00000000       0.00000000       0.00000000 </v>
  <v>       0.00000000       0.00000000       0.00000000 </v>
  <v>       0.00000000       0.00000000       0.00000000 </v>
  <v>       0.00000000       0.00000000       0.00000000 </v>
  <v>       0.00000000       0.00000000       0.00000000 </v>
  <v>      -0.00000000      -0.00000000      -0.00000000 </v>
  <v>      -0.00000000      -0.00000000      -0.00000000 </v>
  <v>      -0.00000000      -0.00000000      -0.00000000 </v>
  <v>      -0.00000000      -0.00000000      -0.00000000 </v>
  <v>      -0.00000000      -0.00000000      -0.00000000 </v>
  <v>      -0.00000000      -0.00000000      -0.00000000 </v>
  <v>      -0.00000000      -0.00000000      -0.00000000 </v>
  <v>      -0.00000000      -0.00000000      -0.00000000 </v>
 </varray>
 <varray name="stress" >
  <v>      -0.00245211       0.00000000      -0.00000000 </v>
  <v>       0.00000000      -0.00245211       0.00000000 </v>
  <v>      -0.00000000       0.00000000      -0.00245211 </v>
 </varray>
 <energy>
  <i name="e_fr_energy">    -91.94585100 </i>
  <i name="e_wo_entrp">    -91.94585100 </i>
  <i name="e_0_energy">    -91.94585100 </i>
 </energy>
 <time name="totalsc">    0.01    0.03</time>
 <structure>
  <crystal>
   <varray name="basis" >
    <v>       0.00000000       5.43546194       5.43546194 </v>
    <v>       5.43546194       0.00000000       5.43546194 </v>
    <v>       5.43546194       5.43546194       0.00000000 </v>
   </varray>
   <i name="volume">    321.17325460 </i>
   <varray name="rec_basis" >
    <v>      -0.09198850       0.09198850       0.09198850 </v>
    <v>       0.09198850      -0.09198850       0.09198850 </v>
    <v>       0.09198850       0.09198850      -0.09198850 </v>
   </varray>
  </crystal>
  <varray name="positions" >
   <v>       0.12500000       0.12500000       0.12500000 </v>
   <v>       0.62500000       0.12500000       0.12500000 </v>
   <v>       0.12500000       0.62500000       0.12500000 </v>
   <v>       0.62500000       0.62500000       0.12500000 </v>
   <v>       0.12500000       0.12500000       0.62500000 </v>
   <v>       0.62500000       0.12500000       0.62500000 </v>
   <v>       0.12500000       0.62500000       0.62500000 </v>
   <v>       0.62500000       0.62500000       0.62500000 </v>
   <v>       0.00000000       0.00000000       0.00000000 </v>
   <v>       0.50000000       0.00000000       0.00000000 </v>
   <v>       0.00000000       0.50000000       0.00000000 </v>
   <v>       0.50000000       0.50000000       0.00000000 </v>
   <v>       0.00000000       0.00000000       0.50000000 </v>
   <v>       0.50000000       0.00000000       0.50000000 </v>
   <v>       0.00000000       0.50000000       0.50000000 </v>
   <v>       0.50000000       0.50000000       0.50000000 </v>
  </varray>
 </structure>
 <varray name="forces" >
  <v>       0.00000000       0.00000000      -0.00000000 </v>
  <v>       0.00000000       0.00000000       0.00000000 </v>
  <v>       0.00000000       0.00000000       0.00000000 </v>
  <v>       0.00000000       0.00000000       0.00000000 </v>
  <v>       0.00000000       0.00000000       0.00000000 </v>
  <v>       0.00000000       0.00000000       0.00000000 </v>
  <v>       0.00000000       0.00000000       0.00000000 </v>
  <v>       0.00000000       0.00000000       0.00000000 </v>
  <v>      -0.00000000      -0.00000000       0.00000000 </v>
  <v>      -0.00000000      -0.00000000      -0.00000000 </v>
  <v>      -0.00000000      -0.00000000      -0.00000000 </v>
  <v>      -0.00000000      -0.00000000      -0.00000000 </v>
  <v>      -0.00000000      -0.00000000      -0.00000000 </v>
  <v>      -0.00000000      -0.00000000      -0.00000000 </v>
  <v>      -0.00000000      -0.00000000      -0.00000000 </v>
  <v>      -0.00000000      -0.00000000      -0.00000000 </v>
 </varray>
 <varray name="stress" >
  <v>      -0.00245212       0.00000000       0.00000000 </v>
  <v>       0.00000000      -0.00245212      -0.00000000 </v>
  <v>       0.00000000      -0.00000000      -0.00245212 </v>
 </varray>
 <energy>
  <i name="e_fr_energy">    -91.94585100 </i>
  <i name="e_wo_entrp">    -91.94585100 </i>
  <i name="e_0_energy">    -91.94585100 </i>
 </energy>
 <time name="totalsc">    0.01    0.03</time>
 <structure>
  <crystal>
   <varray name="basis" >
    <v>       0.00000000       5.43545831       5.43545831 </v>
    <v>       5.43545831       0.00000000       5.43545831 </v>
    <v>       5.43545831       5.43545831       0.00000000 </v>
   </varray>
   <i name="volume">    321.17261129 </i>
   <varray name="rec_basis" >
    <v>      -0.09198856       0.09198856       0.09198856 </v>
    <v>       0.09198856      -0.09198856       0.09198856 </v>
    <v>       0.09198856       0.09198856      -0.09198856 </v>
   </varray>
  </crystal>
  <varray name="positions" >
   <v>       0.12500000       0.12500000       0.12500000 </v>
   <v>       0.62500000       0.12500000       0.12500000 </v>
   <v>       0.12500000       0.62500000       0.12500000 </v>
   <v>       0.62500000       0.62500000       0.12500000 </v>
   <v>       0.12500000       0.12500000       0.62500000 </v>
   <v>       0.62500000       0.12500000       0.62500000 </v>
   <v>       0.12500000       0.62500000       0.62500000 </v>
   <v>       0.62500000       0.62500000       0.62500000 </v>
   <v>       0.00000000       0.00000000       0.00000000 </v>
   <v>       0.50000000       0.00000000       0.00000000 </v>
   <v>       0.00000000       0.50000000       0.00000000 </v>
   <v>       0.50000000       0.50000000       0.00000000 </v>
   <v>       0.00000000       0.00000000       0.50000000 </v>
   <v>       0.50000000       0.00000000       0.50000000 </v>
   <v>       0.00000000       0.50000000       0.50000000 </v>
   <v>       0.50000000       0.50000000       0.50000000 </v>
  </varray>
 </structure>
 <varray name="forces" >
  <v>       0.00000000      -0.00000000       0.00000000 </v>
  <v>       0.00000000       0.00000000       0.00000000 </v>
  <v>       0.00000000       0.00000000       0.00000000 </v>
  <v>       0.00000000      -0.00000000       0.00000000 </v>
  <v>       0.00000000      -0.00000000       0.00000000 </v>
  <v>       0.00000000      -0.00000000       0.00000000 </v>
  <v>       0.00000000      -0.00000000       0.00000000 </v>
  <v>       0.00000000       0.00000000       0.00000000 </v>
  <v>       0.00000000       0.00000000      -0.00000000 </v>
  <v>      -0.00000000      -0.00000000      -0.00000000 </v>
  <v>      -0.00000000       0.00000000      -0.00000000 </v>
  <v>      -0.00000000       0.00000000      -0.00000000 </v>
  <v>      -0.00000000       0.00000000      -0.00000000 </v>
  <v>      -0.00000000       0.00000000      -0.00000000 </v>
  <v>      -0.00000000       0.00000000      -0.00000000 </v>
  <v>      -0.00000000      -0.00000000      -0.00000000 </v>
 </varray>
 <varray name="stress" >
  <v>      -0.00245212       0.00000000      -0.00000000 </v>
  <v>       0.00000000      -0.00245212       0.00000000 </v>
  <v>      -0.00000000       0.00000000      -0.00245212 </v>
 </varray>
 <energy>
  <i name="e_fr_energy">    -91.94585100 </i>
  <i name="e_wo_entrp">    -91.94585100 </i>
  <i name="e_0_energy">    -91.94585100 </i>
 </energy>
 <time name="totalsc">    0.01    0.03</time>
 <structure>
  <crystal>
   <varray name="basis" >
    <v>       0.00000000       5.43545650       5.43545650 </v>
    <v>       5.43545650       0.00000000       5.43545650 </v>
    <v>       5.43545650       5.43545650       0.00000000 </v>
   </varray>
   <i name="volume">    321.17228963 </i>
   <varray name="rec_basis" >
    <v>      -0.09198859       0.09198859       0.09198859 </v>
    <v>       0.09198859      -0.09198859       0.09198859 </v>
    <v>       0.09198859       0.09198859      -0.09198859 </v>
   </varray>
  </crystal>
  <varray name="positions" >
   <v>       0.12500000       0.12500000       0.12500000 </v>
   <v>       0.62500000       0.12500000       0.12500000 </v>
   <v>       0.12500000       0.62500000       0.12500000 </v>
   <v>       0.62500000       0.62500000       0.12500000 </v>
   <v>       0.12500000       0.12500000       0.62500000 </v>
   <v>       0.62500000       0.12500000       0.62500000 </v>
   <v>       0.12500000       0.62500000       0.62500000 </v>
   <v>       0.62500000       0.62500000       0.62500000 </v>
   <v>       0.00000000       0.00000000       0.00000000 </v>
   <v>       0.50000000       0.00000000       0.00000000 </v>
   <v>       0.00000000       0.50000000       0.00000000 </v>
   <v>       0.50000000       0.50000000       0.00000000 </v>
   <v>       0.00000000       0.00000000       0.50000000 </v>
   <v>       0.50000000       0.00000000       0.50000000 </v>
   <v>       0.00000000       0.50000000       0.50000000 </v>
   <v>       0.50000000       0.50000000       0.50000000 </v>
  </varray>
 </structure>
 <varray name="forces" >
  <v>      -0.00000000       0.00000000      -0.00000000 </v>
  <v>       0.00000000       0.00000000       0.00000000 </v>
  <v>       0.00000000      -0.00000000       0.00000000 </v>
  <v>       0.00000000       0.00000000       0.00000000 </v>
  <v>       0.00000000       0.00000000       0.00000000 </v>
  <v>       0.00000000       0.00000000       0.00000000 </v>
  <v>       0.00000000       0.00000000       0.00000000 </v>
  <v>       0.00000000       0.00000000       0.00000000 </v>
  <v>       0.00000000      -0.00000000      -0.00000000 </v>
  <v>      -0.00000000      -0.00000000      -0.00000000 </v>
  <v>      -0.00000000       0.00000000      -0.00000000 </v>
  <v>      -0.00000000      -0.00000000      -0.00000000 </v>
  <v>      -0.00000000      -0.00000000      -0.00000000 </v>
  <v>      -0.00000000      -0.00000000      -0.00000000 </v>
  <v>      -0.00000000      -0.00000000      -0.00000000 </v>
  <v>      -0.00000000      -0.00000000      -0.00000000 </v>
 </varray>
 <varray name="stress" >
  <v>      -0.00245212       0.00000000      -0.00000000 </v>
  <v>       0.00000000      -0.00245212      -0.00000000 </v>
  <v>      -0.00000000      -0.00000000      -0.00245212 </v>
 </varray>
 <energy>
  <i name="e_fr_energy">    -91.94585100 </i>
  <i name="e_wo_entrp">    -91.94585100 </i>
  <i name="e_0_energy">    -91.94585100 </i>
 </energy>
 <time name="totalsc">    0.01    0.03</time>
 <structure>
  <crystal>
   <varray name="basis" >
    <v>       0.00000000       5.43545559       5.43545559 </v>
    <v>       5.43545559       0.00000000       5.43545559 </v>
    <v>       5.43545559       5.43545559       0.00000000 </v>
   </varray>
   <i name="volume">    321.17212880 </i>
   <varray name="rec_basis" >
    <v>      -0.09198861       0.09198861       0.09198861 </v>
    <v>       0.09198861      -0.09198861       0.09198861 </v>
    <v>       0.09198861       0.09198861      -0.09198861 </v>
   </varray>
  </crystal>
  <varray name="positions" >
   <v>       0.12500000       0.12500000       0.12500000 </v>
   <v>       0.62500000       0.12500000       0.12500000 </v>
   <v>       0.12500000       0.62500000       0.12500000 </v>
   <v>       0.62500000       0.62500000       0.12500000 </v>
   <v>       0.12500000       0.12500000       0.62500000 </v>
   <v>       0.62500000       0.12500000       0.62500000 </v>
   <v>       0.12500000       0.62500000       0.62500000 </v>
   <v>       0.62500000       0.62500000       0.62500000 </v>
   <v>       0.00000000       0.00000000       0.00000000 </v>
   <v>       0.50000000       0.00000000       0.00000000 </v>
   <v>       0.00000000       0.50000000       0.00000000 </v>
   <v>       0.50000000       0.50000000       0.00000000 </v>
   <v>       0.00000000       0.00000000       0.50000000 </v>
   <v>       0.50000000       0.00000000       0.50000000 </v>
   <v>       0.00000000       0.50000000       0.50000000 </v>
   <v>       0.50000000       0.50000000       0.50000000 </v>
  </varray>
 </structure>
 <varray name="forces" >
  <v>       0.00000000      -0.00000000      -0.00000000 </v>
  <v>      -0.00000000      -0.00000000      -0.00000000 </v>
  <v>      -0.00000000      -0.00000000      -0.00000000 </v>
  <v>       0.00000000      -0.00000000      -0.00000000 </v>
  <v>      -0.00000000      -0.00000000      -0.00000000 </v>
  <v>      -0.00000000      -0.00000000      -0.00000000 </v>
  <v>      -0.00000000      -0.00000000      -0.00000000 </v>
  <v>      -0.00000000      -0.00000000      -0.00000000 </v>
  <v>      -0.00000000       0.00000000       0.00000000 </v>
  <v>       0.00000000       0.00000000       0.00000000 </v>
  <v>       0.00000000       0.00000000       0.00000000 </v>
  <v>      -0.00000000       0.00000000       0.00000000 </v>
  <v>       0.00000000       0.00000000       0.00000000 </v>
  <v>       0.00000000       0.00000000       0.00000000 </v>
  <v>       0.00000000       0.00000000       0.00000000 </v>
  <v>       0.00000000       0.00000000       0.00000000 </v>
 </varray>
 <varray name="stress" >
  <v>      -0.00245212      -0.00000000      -0.00000000 </v>
  <v>      -0.00000000      -0.00245212      -0.00000000 </v>
  <v>      -0.00000000      -0.00000000      -0.00245212 </v>
 </varray>
 <energy>
  <i name="e_fr_energy">    -91.94585101 </i>
  <i name="e_wo_entrp">    -91.94585101 </i>
  <i name="e_0_energy">    -91.94585101 </i>
 </energy>
 <time name="totalsc">    0.01    0.03</time>
 <structure>
  <crystal>
   <varray name="basis" >
    <v>       0.00000000       5.43545513       5.43545513 </v>
    <v>       5.43545513       0.00000000       5.43545513 </v>
    <v>       5.43545513       5.43545513       0.00000000 </v>
   </varray>
   <i name="volume">    321.17204839 </i>
   <varray name="rec_basis" >
    <v>      -0.09198862       0.09198862       0.09198862 </v>
    <v>       0.09198862      -0.09198862       0.09198862 </v>
    <v>       0.09198862       0.09198862      -0.09198862 </v>
   </varray>
  </crystal>
  <varray name="positions" >
   <v>       0.12500000       0.12500000       0.12500000 </v>
   <v>       0.62500000       0.12500000       0.12500000 </v>
   <v>       0.12500000       0.62500000       0.12500000 </v>
   <v>       0.62500000       0.62500000       0.12500000 </v>
   <v>       0.12500000       0.12500000       0.62500000 </v>
   <v>       0.62500000       0.12500000       0.62500000 </v>
   <v>       0.12500000       0.62500000       0.62500000 </v>
   <v>       0.62500000       0.62500000       0.62500000 </v>
   <v>       0.00000000       0.00000000       0.00000000 </v>
   <v>       0.50000000       0.00000000       0.00000000 </v>
   <v>       0.00000000       0.50000000       0.00000000 </v>
   <v>       0.50000000       0.50000000       0.00000000 </v>
   <v>       0.00000000       0.00000000       0.50000000 </v>
   <v>       0.50000000       0.00000000       0.50000000 </v>
   <v>       0.00000000       0.50000000       0.50000000 </v>
   <v>       0.50000000       0.50000000       0.50000000 </v>
  </varray>
 </structure>
 <varray name="forces" >
  <v>       0.00000000       0.00000000       0.00000000 </v>
  <v>      -0.00000000       0.00000000       0.00000000 </v>
  <v>       0.00000000       0.00000000       0.00000000 </v>
  <v>       0.00000000      -0.00000000       0.00000000 </v>
  <v>       0.00000000       0.00000000       0.00000000 </v>
  <v>       0.00000000       0.00000000       0.00000000 </v>
  <v>      -0.00000000       0.00000000       0.00000000 </v>
  <v>       0.00000000       0.00000000       0.00000000 </v>
  <v>      -0.00000000      -0.00000000      -0.00000000 </v>
  <v>       0.00000000      -0.00000000      -0.00000000 </v>
  <v>      -0.00000000      -0.00000000      -0.00000000 </v>
  <v>      -0.00000000       0.00000000      -0.00000000 </v>
  <v>      -0.00000000      -0.00000000      -0.00000000 </v>
  <v>      -0.00000000      -0.00000000      -0.00000000 </v>
  <v>       0.00000000      -0.00000000      -0.00000000 </v>
  <v>      -0.00000000      -0.00000000      -0.00000000 </v>
 </varray>
 <varray name="stress" >
  <v>      -0.00245212       0.00000000       0.00000000 </v>
  <v>       0.00000000      -0.00245212       0.00000000 </v>
  <v>       0.00000000       0.00000000      -0.00245212 </v>
 </varray>
 <energy>
  <i name="e_fr_energy">    -91.94585101 </i>
  <i name="e_wo_entrp">    -91.94585101 </i>
  <i name="e_0_energy">    -91.94585101 </i>
 </energy>
 <time name="totalsc">    0.01    0.03</time>
 <structure>
  <crystal>
   <varray name="basis" >
    <v>       0.00000000       5.43545491       5.43545491 </v>
    <v>       5.43545491       0.00000000       5.43545491 </v>
    <v>       5.43545491       5.43545491       0.00000000 </v>
   </varray>
   <i name="volume">    321.17200818 </i>
   <varray name="rec_basis" >
    <v>      -0.09198862       0.09198862       0.09198862 </v>
    <v>       0.09198862      -0.09198862       0.09198862 </v>
    <v>       0.09198862       0.09198862      -0.09198862 </v>
   </varray>
  </crystal>
  <varray name="positions" >
   <v>       0.12500000       0.12500000       0.12500000 </v>
   <v>       0.62500000       0.12500000       0.12500000 </v>
   <v>       0.12500000       0.62500000       0.12500000 </v>
   <v>       0.62500000       0.62500000       0.12500000 </v>
   <v>       0.12500000       0.12500000       0.62500000 </v>
   <v>       0.62500000       0.12500000       0.62500000 </v>
   <v>       0.12500000       0.62500000       0.62500000 </v>
   <v>       0.62500000       0.62500000       0.62500000 </v>
   <v>       0.00000000       0.00000000       0.00000000 </v>
   <v>       0.50000000       0.00000000       0.00000000 </v>
   <v>       0.00000000       0.50000000       0.00000000 </v>
   <v>       0.50000000       0.50000000       0.00000000 </v>
   <v>       0.00000000       0.00000000       0.50000000 </v>
   <v>       0.50000000       0.00000000       0.50000000 </v>
   <v>       0.00000000       0.50000000       0.50000000 </v>
   <v>       0.50000000       0.50000000       0.50000000 </v>
  </varray>
 </structure>
 <varray name="forces" >
  <v>      -0.00000000      -0.00000000      -0.00000000 </v>
  <v>      -0.00000000      -0.00000000      -0.00000000 </v>
  <v>      -0.00000000      -0.00000000      -0.00000000 </v>
  <v>      -0.00000000      -0.00000000      -0.00000000 </v>
  <v>      -0.00000000      -0.00000000      -0.00000000 </v>
  <v>      -0.00000000      -0.00000000      -0.00000000 </v>
  <v>      -0.00000000      -0.00000000      -0.00000000 </v>
  <v>      -0.00000000      -0.00000000      -0.00000000 </v>
  <v>       0.00000000       0.00000000       0.00000000 </v>
  <v>       0.00000000       0.00000000       0.00000000 </v>
  <v>       0.00000000       0.00000000       0.00000000 </v>
  <v>       0.00000000       0.00000000       0.00000000 </v>
  <v>       0.00000000       0.00000000       0.00000000 </v>
  <v>       0.00000000       0.00000000       0.00000000 </v>
  <v>       0.00000000       0.00000000       0.00000000 </v>
  <v>       0.00000000       0.00000000       0.00000000 </v>
 </varray>
 <varray name="stress" >
  <v>      -0.00245212       0.00000000       0.00000000 </v>
  <v>       0.00000000      -0.00245212      -0.00000000 </v>
  <v>       0.00000000      -0.00000000      -0.00245212 </v>
 </varray>
 <energy>
  <i name="e_fr_energy">    -91.94585101 </i>
  <i name="e_wo_entrp">    -91.94585101 </i>
  <i name="e_0_energy">    -91.94585101 </i>
 </energy>
 <time name="totalsc">    0.01    0.03</time>
 <structure>
  <crystal>
   <varray name="basis" >
    <v>       0.00000000       5.43545479       5.43545479 </v>
    <v>       5.43545479       0.00000000       5.43545479 </v>
    <v>       5.43545479       5.43545479       0.00000000 </v>
   </varray>
   <i name="volume">    321.17198808 </i>
   <varray name="rec_basis" >
    <v>      -0.09198862       0.09198862       0.09198862 </v>
    <v>       0.09198862      -0.09198862       0.09198862 </v>
    <v>       0.09198862       0.09198862      -0.09198862 </v>
   </varray>
  </crystal>
  <varray name="positions" >
   <v>       0.12500000       0.12500000       0.12500000 </v>
   <v>       0.62500000       0.12500000       0.12500000 </v>
   <v>       0.12500000       0.62500000       0.12500000 </v>
   <v>       0.62500000       0.62500000       0.12500000 </v>
   <v>       0.12500000       0.12500000       0.62500000 </v>
   <v>       0.62500000       0.12500000       0.62500000 </v>
   <v>       0.12500000       0.62500000       0.62500000 </v>
   <v>       0.62500000       0.62500000       0.62500000 </v>
   <v>       0.00000000       0.00000000       0.00000000 </v>
   <v>       0.50000000       0.00000000       0.00000000 </v>
   <v>       0.00000000       0.50000000       0.00000000 </v>
   <v>       0.50000000       0.50000000       0.00000000 </v>
   <v>       0.00000000       0.00000000       0.50000000 </v>
   <v>       0.50000000       0.00000000       0.50000000 </v>
   <v>       0.00000000       0.50000000       0.50000000 </v>
   <v>       0.50000000       0.50000000       0.50000000 </v>
  </varray>
 </structure>
 <varray name="forces" >
  <v>       0.00000000       0.00000000       0.00000000 </v>
  <v>       0.00000000       0.00000000       0.00000000 </v>
  <v>       0.00000000       0.00000000       0.00000000 </v>
  <v>       0.00000000       0.00000000       0.00000000 </v>
  <v>       0.00000000       0.00000000       0.00000000 </v>
  <v>       0.00000000       0.00000000       0.00000000 </v>
  <v>       0.00000000       0.00000000       0.00000000 </v>
  <v>       0.00000000       0.00000000       0.00000000 </v>
  <v>      -0.00000000      -0.00000000      -0.00000000 </v>
  <v>      -0.00000000      -0.00000000      -0.00000000 </v>
  <v>      -0.00000000      -0.00000000      -0.00000000 </v>
  <v>      -0.00000000      -0.00000000      -0.00000000 </v>
  <v>      -0.00000000      -0.00000000      -0.00000000 </v>
  <v>      -0.00000000      -0.00000000      -0.00000000 </v>
  <v>      -0.00000000      -0.00000000      -0.00000000 </v>
  <v>      -0.00000000      -0.00000000      -0.00000000 </v>
 </varray>
 <varray name="stress" >
  <v>      -0.00245212      -0.00000000       0.00000000 </v>
  <v>      -0.00000000      -0.00245212       0.00000000 </v>
  <v>       0.00000000       0.00000000      -0.00245212 </v>
 </varray>
 <energy>
  <i name="e_fr_energy">    -91.94585101 </i>
  <i name="e_wo_entrp">    -91.94585101 </i>
  <i name="e_0_energy">    -91.94585101 </i>
 </energy>
 <time name="totalsc">    0.01    0.03</time>
 <structure>
  <crystal>
   <varray name="basis" >
    <v>       0.00000000       5.43545474       5.43545474 </v>
    <v>       5.43545474       0.00000000       5.43545474 </v>
    <v>       5.43545474       5.43545474       0.00000000 </v>
   </varray>
   <i name="volume">    321.17197802 </i>
   <varray name="rec_basis" >
    <v>      -0.09198862       0.09198862       0.09198862 </v>
    <v>       0.09198862      -0.09198862       0.09198862 </v>
    <v>       0.09198862       0.09198862      -0.09198862 </v>
   </varray>
  </crystal>
  <varray name="positions" >
   <v>       0.12500000       0.12500000       0.12500000 </v>
   <v>       0.62500000       0.12500000       0.12500000 </v>
   <v>       0.12500000       0.62500000       0.12500000 </v>
   <v>       0.62500000       0.62500000       0.12500000 </v>
   <v>       0.12500000       0.12500000       0.62500000 </v>
   <v>       0.62500000       0.12500000       0.62500000 </v>
   <v>       0.12500000       0.62500000       0.62500000 </v>
   <v>       0.62500000       0.62500000       0.62500000 </v>
   <v>       0.00000000       0.00000000       0.00000000 </v>
   <v>       0.50000000       0.00000000       0.00000000 </v>
   <v>       0.00000000       0.50000000       0.00000000 </v>
   <v>       0.50000000       0.50000000       0.00000000 </v>
   <v>       0.00000000       0.00000000       0.50000000 </v>
   <v>       0.50000000       0.00000000       0.50000000 </v>
   <v>       0.00000000       0.50000000       0.50000000 </v>
   <v>       0.50000000       0.50000000       0.50000000 </v>
  </varray>
 </structure>
 <varray name="forces" >
  <v>      -0.00000000      -0.00000000       0.00000000 </v>
  <v>      -0.00000000       0.00000000       0.00000000 </v>
  <v>      -0.00000000      -0.00000000      -0.00000000 </v>
  <v>       0.00000000       0.00000000       0.00000000 </v>
  <v>       0.00000000      -0.00000000       0.00000000 </v>
  <v>      -0.00000000      -0.00000000      -0.00000000 </v>
  <v>      -0.00000000      -0.00000000      -0.00000000 </v>
  <v>       0.00000000      -0.00000000       0.00000000 </v>
  <v>       0.00000000       0.00000000      -0.00000000 </v>
  <v>       0.00000000      -0.00000000      -0.00000000 </v>
  <v>       0.00000000       0.00000000       0.00000000 </v>
  <v>      -0.00000000      -0.00000000      -0.00000000 </v>
  <v>      -0.00000000       0.00000000       0.00000000 </v>
  <v>       0.00000000       0.00000000       0.00000000 </v>
  <v>       0.00000000       0.00000000       0.00000000 </v>
  <v>      -0.00000000       0.00000000      -0.00000000 </v>
 </varray>
 <varray name="stress" >
  <v>      -0.00245212       0.00000000       0.00000000 </v>
  <v>       0.00000000      -0.00245212       0.00000000 </v>
  <v>       0.00000000       0.00000000      -0.00245212 </v>
 </varray>
 <energy>
  <i name="e_fr_energy">    -91.94585101 </i>
  <i name="e_wo_entrp">    -91.94585101 </i>
  <i name="e_0_energy">    -91.94585101 </i>
 </energy>
 <time name="totalsc">    0.01    0.03</time>
 <structure>
  <crystal>
   <varray name="basis" >
    <v>       0.00000000       5.43545471       5.43545471 </v>
    <v>       5.43545471       0.00000000       5.43545471 </v>
    <v>       5.43545471       5.43545471       0.00000000 </v>
   </varray>
   <i name="volume">    321.17197300 </i>
   <varray name="rec_basis" >
    <v>      -0.09198862       0.09198862       0.09198862 </v>
    <v>       0.09198862      -0.09198862       0.09198862 </v>
    <v>       0.09198862       0.09198862      -0.09198862 </v>
   </varray>
  </crystal>
  <varray name="positions" >
   <v>       0.12500000       0.12500000       0.12500000 </v>
   <v>       0.62500000       0.12500000       0.12500000 </v>
   <v>       0.12500000       0.62500000       0.12500000 </v>
   <v>       0.62500000       0.62500000       0.12500000 </v>
   <v>       0.12500000       0.12500000       0.62500000 </v>
   <v>       0.62500000       0.12500000       0.62500000 </v>
   <v>       0.12500000       0.62500000       0.62500000 </v>
   <v>       0.62500000       0.62500000       0.62500000 </v>
   <v>       0.00000000       0.00000000       0.00000000 </v>
   <v>       0.50000000       0.00000000       0.00000000 </v>
   <v>       0.00000000       0.50000000       0.00000000 </v>
   <v>       0.50000000       0.50000000       0.00000000 </v>
   <v>       0.00000000       0.00000000       0.50000000 </v>
   <v>       0.50000000       0.00000000       0.50000000 </v>
   <v>       0.00000000       0.50000000       0.50000000 </v>
   <v>       0.50000000       0.50000000       0.50000000 </v>
  </varray>
 </structure>
 <varray name="forces" >
  <v>      -0.00000000       0.00000000      -0.00000000 </v>
  <v>      -0.00000000       0.00000000       0.00000000 </v>
  <v>      -0.00000000      -0.00000000       0.00000000 </v>
  <v>       0.00000000      -0.00000000       0.00000000 </v>
  <v>      -0.00000000      -0.00000000      -0.00000000 </v>
  <v>       0.00000000       0.00000000       0.00000000 </v>
  <v>      -0.00000000       0.00000000       0.00000000 </v>
  <v>      -0.00000000       0.00000000       0.00000000 </v>
  <v>       0.00000000      -0.00000000       0.00000000 </v>
  <v>       0.00000000      -0.00000000      -0.00000000 </v>
  <v>       0.00000000       0.00000000      -0.00000000 </v>
  <v>      -0.00000000       0.00000000      -0.00000000 </v>
  <v>       0.00000000       0.00000000      -0.00000000 </v>
  <v>       0.00000000      -0.00000000      -0.00000000 </v>
  <v>       0.00000000      -0.00000000      -0.00000000 </v>
  <v>       0.00000000      -0.00000000      -0.00000000 </v>
 </varray>
 <varray name="stress" >
  <v>      -0.00245212       0.00000000      -0.00000000 </v>
  <v>       0.00000000      -0.00245212       0.00000000 </v>
  <v>      -0.00000000       0.00000000      -0.00245212 </v>
 </varray>
 <energy>
  <i name="e_fr_energy">    -91.94585101 </i>
  <i name="e_wo_entrp">    -91.94585101 </i>
  <i name="e_0_energy">    -91.94585101 </i>
 </energy>
 <time name="totalsc">    0.01    0.03</time>
 <structure>
  <crystal>
   <varray name="basis" >
    <v>       0.00000000       5.43545469       5.43545469 </v>
    <v>       5.43545469       0.00000000       5.43545469 </v>
    <v>       5.43545469       5.43545469       0.00000000 </v>
   </varray>
   <i name="volume">    321.17197048 </i>
   <varray name="rec_basis" >
    <v>      -0.09198862       0.09198862       0.09198862 </v>
    <v>       0.09198862      -0.09198862       0.09198862 </v>
    <v>       0.09198862       0.09198862      -0.09198862 </v>
   </varray>
  </crystal>
  <varray name="positions" >
   <v>       0.12500000       0.12500000       0.12500000 </v>
   <v>       0.62500000       0.12500000       0.12500000 </v>
   <v>       0.12500000       0.62500000       0.12500000 </v>
   <v>       0.62500000       0.62500000       0.12500000 </v>
   <v>       0.12500000       0.12500000       0.62500000 </v>
   <v>       0.62500000       0.12500000       0.62500000 </v>
   <v>       0.12500000       0.62500000       0.62500000 </v>
   <v>       0.62500000       0.62500000       0.62500000 </v>
   <v>       0.00000000       0.00000000       0.00000000 </v>
   <v>       0.50000000       0.00000000       0.00000000 </v>
   <v>       0.00000000       0.50000000       0.00000000 </v>
   <v>       0.50000000       0.50000000       0.00000000 </v>
   <v>       0.00000000       0.00000000       0.50000000 </v>
   <v>       0.50000000       0.00000000       0.50000000 </v>
   <v>       0.00000000       0.50000000       0.50000000 </v>
   <v>       0.50000000       0.50000000       0.50000000 </v>
  </varray>
 </structure>
 <varray name="forces" >
  <v>      -0.00000000       0.00000000       0.00000000 </v>
  <v>      -0.00000000       0.00000000       0.00000000 </v>
  <v>      -0.00000000       0.00000000      -0.00000000 </v>
  <v>      -0.00000000      -0.00000000       0.00000000 </v>
  <v>      -0.00000000      -0.00000000       0.00000000 </v>
  <v>       0.00000000      -0.00000000      -0.00000000 </v>
  <v>       0.00000000      -0.00000000      -0.00000000 </v>
  <v>      -0.00000000      -0.00000000      -0.00000000 </v>
  <v>       0.00000000      -0.00000000      -0.00000000 </v>
  <v>       0.00000000      -0.00000000      -0.00000000 </v>
  <v>       0.00000000      -0.00000000       0.00000000 </v>
  <v>       0.00000000       0.00000000      -0.00000000 </v>
  <v>       0.00000000       0.00000000       0.00000000 </v>
  <v>      -0.00000000       0.00000000       0.00000000 </v>
  <v>      -0.00000000       0.00000000       0.00000000 </v>
  <v>       0.00000000       0.00000000       0.00000000 </v>
 </varray>
 <varray name="stress" >
  <v>      -0.00245212       0.00000000       0.00000000 </v>
  <v>       0.00000000      -0.00245212       0.00000000 </v>
  <v>       0.00000000       0.00000000      -0.00245212 </v>
 </varray>
 <energy>
  <i name="e_fr_energy">    -91.94585101 </i>
  <i name="e_wo_entrp">    -91.94585101 </i>
  <i name="e_0_energy">    -91.94585101 </i>
 </energy>
 <time name="totalsc">    0.01    0.03</time>
 <structure>
  <crystal>
   <varray name="basis" >
    <v>       0.00000000       5.43545469       5.43545469 </v>
    <v>       5.43545469       0.00000000       5.43545469 </v>
    <v>       5.43545469       5.43545469       0.00000000 </v>
   </varray>
   <i name="volume">    321.17196923 </i>
   <varray name="rec_basis" >
    <v>      -0.09198862       0.09198862       0.09198862 </v>
    <v>       0.09198862      -0.09198862       0.09198862 </v>
    <v>       0.09198862       0.09198862      -0.09198862 </v>
   </varray>
  </crystal>
  <varray name="positions" >
   <v>       0.12500000       0.12500000       0.12500000 </v>
   <v>       0.62500000       0.12500000       0.12500000 </v>
   <v>       0.12500000       0.62500000       0.12500000 </v>
   <v>       0.62500000       0.62500000       0.12500000 </v>
   <v>       0.12500000       0.12500000       0.62500000 </v>
   <v>       0.62500000       0.12500000       0.62500000 </v>
   <v>       0.12500000       0.62500000       0.62500000 </v>
   <v>       0.62500000       0.62500000       0.62500000 </v>
   <v>       0.00000000       0.00000000       0.00000000 </v>
   <v>       0.50000000       0.00000000       0.00000000 </v>
   <v>       0.00000000       0.50000000       0.00000000 </v>
   <v>       0.50000000       0.50000000       0.00000000 </v>
   <v>       0.00000000       0.00000000       0.50000000 </v>
   <v>       0.50000000       0.00000000       0.50000000 </v>
   <v>       0.00000000       0.50000000       0.50000000 </v>
   <v>       0.50000000       0.50000000       0.50000000 </v>
  </varray>
 </structure>
 <varray name="forces" >
  <v>      -0.00000000      -0.00000000      -0.00000000 </v>
  <v>      -0.00000000      -0.00000000      -0.00000000 </v>
  <v>      -0.00000000      -0.00000000      -0.00000000 </v>
  <v>      -0.00000000      -0.00000000      -0.00000000 </v>
  <v>      -0.00000000      -0.00000000      -0.00000000 </v>
  <v>      -0.00000000      -0.00000000      -0.00000000 </v>
  <v>      -0.00000000      -0.00000000      -0.00000000 </v>
  <v>      -0.00000000      -0.00000000      -0.00000000 </v>
  <v>       0.00000000       0.00000000       0.00000000 </v>
  <v>       0.00000000       0.00000000       0.00000000 </v>
  <v>       0.00000000       0.00000000       0.00000000 </v>
  <v>       0.00000000       0.00000000       0.00000000 </v>
  <v>       0.00000000       0.00000000       0.00000000 </v>
  <v>       0.00000000       0.00000000       0.00000000 </v>
  <v>       0.00000000       0.00000000       0.00000000 </v>
  <v>       0.00000000       0.00000000       0.00000000 </v>
 </varray>
 <varray name="stress" >
  <v>      -0.00245212       0.00000000       0.00000000 </v>
  <v>       0.00000000      -0.00245212       0.00000000 </v>
  <v>       0.00000000       0.00000000      -0.00245212 </v>
 </varray>
 <energy>
  <i name="e_fr_energy">    -91.94585101 </i>
  <i name="e_wo_entrp">    -91.94585101 </i>
  <i name="e_0_energy">    -91.94585101 </i>
 </energy>
 <time name="totalsc">    0.01    0.03</time>
 <structure>
  <crystal>
   <varray name="basis" >
    <v>       0.00000000       5.43545468       5.43545468 </v>
    <v>       5.43545468       0.00000000       5.43545468 </v>
    <v>       5.43545468       5.43545468       0.00000000 </v>
   </varray>
   <i name="volume">    321.17196797 </i>
   <varray name="rec_basis" >
    <v>      -0.09198862       0.09198862       0.09198862 </v>
    <v>       0.09198862      -0.09198862       0.09198862 </v>
    <v>       0.09198862       0.09198862      -0.09198862 </v>
   </varray>
  </crystal>
  <varray name="positions" >
   <v>       0.12500000       0.12500000       0.12500000 </v>
   <v>       0.62500000       0.12500000       0.12500000 </v>
   <v>       0.12500000       0.62500000       0.12500000 </v>
   <v>       0.62500000       0.62500000       0.12500000 </v>
   <v>       0.12500000       0.12500000       0.62500000 </v>
   <v>       0.62500000       0.12500000       0.62500000 </v>
   <v>       0.12500000       0.62500000       0.62500000 </v>
   <v>       0.62500000       0.62500000       0.62500000 </v>
   <v>       0.00000000       0.00000000       0.00000000 </v>
   <v>       0.50000000       0.00000000       0.00000000 </v>
   <v>       0.00000000       0.50000000       0.00000000 </v>
   <v>       0.50000000       0.50000000       0.00000000 </v>
   <v>       0.00000000       0.00000000       0.50000000 </v>
   <v>       0.50000000       0.00000000       0.50000000 </v>
   <v>       0.00000000       0.50000000       0.50000000 </v>
   <v>       0.50000000       0.50000000       0.50000000 </v>
