 ----------------------------------------------------
    OOO  PPPP  EEEEE N   N M   M PPPP
   O   O P   P E     NN  N MM MM P   P
   O   O PPPP  EEEEE N N N M M M PPPP   -- VERSION
   O   O P     E     N  NN M   M P
    OOO  P     EEEEE N   N M   M P
 ----------------------------------------------------
 running  128 mpi-ranks, with    1 threads/rank
 distrk:  each k-point on  128 cores,    1 groups
 distr:  one band on   16 cores,    8 groups
 vasp.6.3.0 20Jan22 (build Feb 21 2022 11:18:28) complex                         
 POSCAR found type information on POSCAR Si
 POSCAR found :  1 types and      16 ions
 Reading from existing POTCAR
 scaLAPACK will be used
 Reading from existing POTCAR
 -----------------------------------------------------------------------------
|                                                                             |
|               ----> ADVICE to this user running VASP <----                  |
|                                                                             |
|     You enforced a specific xc type in the INCAR file but a different       |
|     type was found in the POTCAR file.                                      |
|     I HOPE YOU KNOW WHAT YOU ARE DOING!                                     |
|                                                                             |
 -----------------------------------------------------------------------------

 LDA part: xc-table for Pade appr. of Perdew
 Machine learning selected
 Setting communicators for machine learning
 Initializing machine learning
 POSCAR, INCAR and KPOINTS ok, starting setup
 FFT: planning ... GRIDC
 FFT: planning ... GRID_SOFT
 FFT: planning ... GRID
 WAVECAR not read
 WARNING: random wavefunctions but no delay for mixing, default for NELMDL
 entering main loop
       N       E                     dE             d eps       ncg     rms          rms(c)
DAV:   1     0.155221916032E+03    0.15522E+03   -0.26239E+04  1536   0.123E+03
DAV:   2    -0.797678023450E+02   -0.23499E+03   -0.21720E+03  1888   0.169E+02
DAV:   3    -0.934452155899E+02   -0.13677E+02   -0.13451E+02  2000   0.363E+01
DAV:   4    -0.937119707573E+02   -0.26676E+00   -0.26560E+00  1944   0.622E+00
DAV:   5    -0.937184681539E+02   -0.64974E-02   -0.64932E-02  1888   0.933E-01    0.140E+01
RMM:   6    -0.924932203988E+02    0.12252E+01   -0.54441E-01  1536   0.201E+00    0.842E+00
RMM:   7    -0.919317915937E+02    0.56143E+00   -0.12887E+00  1536   0.318E+00    0.463E-01
RMM:   8    -0.919417640850E+02   -0.99725E-02   -0.11802E-01  1542   0.118E+00    0.249E-01
RMM:   9    -0.919451267416E+02   -0.33627E-02   -0.34855E-02  1556   0.579E-01    0.271E-01
RMM:  10    -0.919456897300E+02   -0.56299E-03   -0.60860E-03  1564   0.287E-01    0.281E-01
RMM:  11    -0.919448348753E+02    0.85485E-03   -0.21287E-03  1536   0.177E-01    0.123E+00
RMM:  12    -0.919457501380E+02   -0.91526E-03   -0.21209E-03  1536   0.183E-01    0.273E-01
RMM:  13    -0.919458433672E+02   -0.93229E-04   -0.20845E-04  1536   0.586E-02    0.970E-02
RMM:  14    -0.919458502100E+02   -0.68428E-05   -0.57941E-05  1598   0.290E-02    0.555E-02
RMM:  15    -0.919458502282E+02   -0.18135E-07   -0.89807E-06  1549   0.132E-02    0.279E-02
RMM:  16    -0.919458511077E+02   -0.87957E-06   -0.24123E-06  1593   0.593E-03    0.194E-02
RMM:  17    -0.919458509657E+02    0.14209E-06   -0.77669E-07  1536   0.352E-03    0.649E-04
RMM:  18    -0.919458509887E+02   -0.23039E-07   -0.16488E-07  1510   0.158E-03    0.241E-03
RMM:  19    -0.919458509699E+02    0.18839E-07   -0.22828E-08  1114   0.616E-04    0.241E-03
RMM:  20    -0.919458509954E+02   -0.25523E-07   -0.99451E-09  1034   0.354E-04    0.125E-03
RMM:  21    -0.919458510187E+02   -0.23337E-07   -0.50920E-09  1016   0.257E-04    0.225E-04
RMM:  22    -0.919458510235E+02   -0.47667E-08   -0.82082E-10   785   0.109E-04
   1 F= -.91945851E+02 E0= -.91945851E+02  d E =-.919459E+02
 curvature:   0.00 expect dE= 0.000E+00 dE for cont linesearch  0.000E+00
 trial: gam= 0.00000 g(F)=  0.000E+00 g(S)=  0.962E-05 ort = 0.000E+00 (trialstep = 0.100E+01)
 search vector abs. value=  0.962E-05
 bond charge predicted
       N       E                     dE             d eps       ncg     rms          rms(c)
DAV:   1    -0.919458569466E+02   -0.59279E-05   -0.12182E-04  1784   0.336E-02    0.112E-02
RMM:   2    -0.919458538031E+02    0.31435E-05   -0.44246E-06  1536   0.673E-03    0.691E-03
RMM:   3    -0.919458512749E+02    0.25281E-05   -0.29413E-06  1536   0.518E-03    0.109E-03
RMM:   4    -0.919458511770E+02    0.97985E-07   -0.28994E-07  1538   0.219E-03    0.127E-03
RMM:   5    -0.919458510562E+02    0.12072E-06   -0.44914E-08  1299   0.906E-04    0.577E-04
RMM:   6    -0.919458508331E+02    0.22309E-06   -0.83153E-09   968   0.415E-04    0.480E-04
RMM:   7    -0.919458508421E+02   -0.89594E-08   -0.27360E-09   952   0.203E-04
   2 F= -.91945851E+02 E0= -.91945851E+02  d E =0.181378E-06
 trial-energy change:    0.000000  1 .order   -0.000001   -0.000010    0.000007
 step:   0.4411(harm=  0.5886)  dis= 0.00000  next Energy=   -91.945853 (dE=-0.198E-05)
   3 F= -.91945851E+02 E0= -.91945851E+02  d E =0.821498E-07
 curvature:  -0.26 expect dE=-0.561E-09 dE for cont linesearch -0.561E-09
 ZBRENT: interpolating
 opt :   0.4346  next Energy=   -91.945851 (dE= 0.817E-07)
   4 F= -.91945851E+02 E0= -.91945851E+02  d E =0.811999E-07
 curvature:  -0.22 expect dE=-0.475E-09 dE for cont linesearch -0.475E-09
 ZBRENT: bisectioning
 opt :   0.2173  next Energy=   -91.945851 (dE= 0.497E-07)
   5 F= -.91945851E+02 E0= -.91945851E+02  d E =0.496922E-07
 curvature: -14.41 expect dE=-0.315E-07 dE for cont linesearch -0.315E-07
 ZBRENT: bisectioning
 opt :   0.1086  next Energy=   -91.945851 (dE= 0.339E-07)
   6 F= -.91945851E+02 E0= -.91945851E+02  d E =0.339386E-07
 curvature:  -7.21 expect dE=-0.158E-07 dE for cont linesearch -0.158E-07
 ZBRENT: bisectioning
 opt :   0.0543  next Energy=   -91.945851 (dE= 0.261E-07)
   7 F= -.91945851E+02 E0= -.91945851E+02  d E =0.260618E-07
 curvature:  -3.60 expect dE=-0.788E-08 dE for cont linesearch -0.788E-08
 ZBRENT: bisectioning
 opt :   0.0272  next Energy=   -91.945851 (dE= 0.221E-07)
   8 F= -.91945851E+02 E0= -.91945851E+02  d E =0.221235E-07
 curvature:  -1.80 expect dE=-0.394E-08 dE for cont linesearch -0.394E-08
 ZBRENT: bisectioning
 opt :   0.0136  next Energy=   -91.945851 (dE= 0.202E-07)
   9 F= -.91945851E+02 E0= -.91945851E+02  d E =0.201543E-07
 curvature:  -0.90 expect dE=-0.197E-08 dE for cont linesearch -0.197E-08
 ZBRENT: bisectioning
 opt :   0.0068  next Energy=   -91.945851 (dE= 0.192E-07)
  10 F= -.91945851E+02 E0= -.91945851E+02  d E =0.191697E-07
 curvature:  -0.45 expect dE=-0.985E-09 dE for cont linesearch -0.985E-09
 ZBRENT: bisectioning
 opt :   0.0034  next Energy=   -91.945851 (dE= 0.187E-07)
  11 F= -.91945851E+02 E0= -.91945851E+02  d E =0.186774E-07
 curvature:  -0.23 expect dE=-0.492E-09 dE for cont linesearch -0.492E-09
 ZBRENT: bisectioning
 opt :   0.0017  next Energy=   -91.945851 (dE= 0.184E-07)
  12 F= -.91945851E+02 E0= -.91945851E+02  d E =0.184312E-07
 curvature:  -0.11 expect dE=-0.246E-09 dE for cont linesearch -0.246E-09
 ZBRENT: bisectioning
 opt :   0.0008  next Energy=   -91.945851 (dE= 0.183E-07)
  13 F= -.91945851E+02 E0= -.91945851E+02  d E =0.183082E-07
 curvature:  -0.06 expect dE=-0.123E-09 dE for cont linesearch -0.123E-09
 ZBRENT: bisectioning
 opt :   0.0004  next Energy=   -91.945851 (dE= 0.182E-07)
  14 F= -.91945851E+02 E0= -.91945851E+02  d E =0.182466E-07
 curvature:  -0.03 expect dE=-0.615E-10 dE for cont linesearch -0.615E-10
 ZBRENT: bisectioning
 opt :   0.0002  next Energy=   -91.945851 (dE= 0.182E-07)
  15 F= -.91945851E+02 E0= -.91945851E+02  d E =0.182159E-07
 curvature:  -0.01 expect dE=-0.308E-10 dE for cont linesearch -0.308E-10
 ZBRENT: bisectioning
 opt :   0.0001  next Energy=   -91.945851 (dE= 0.182E-07)
  16 F= -.91945851E+02 E0= -.91945851E+02  d E =0.182005E-07
 curvature:  -0.01 expect dE=-0.154E-10 dE for cont linesearch -0.154E-10
 ZBRENT: bisectioning
 opt :   0.0001  next Energy=   -91.945851 (dE= 0.182E-07)
  17 F= -.91945851E+02 E0= -.91945851E+02  d E =0.181928E-07
 curvature:  -0.00 expect dE=-0.769E-11 dE for cont linesearch -0.769E-11
 ZBRENT: bisectioning
 opt :   0.0000  next Energy=   -91.945851 (dE= 0.182E-07)
  18 F= -.91945851E+02 E0= -.91945851E+02  d E =0.181889E-07
 curvature:  -0.00 expect dE=-0.385E-11 dE for cont linesearch -0.385E-11
 ZBRENT: bisectioning
 opt :   0.0000  next Energy=   -91.945851 (dE= 0.182E-07)
  19 F= -.91945851E+02 E0= -.91945851E+02  d E =0.181870E-07
 curvature:  -0.00 expect dE=-0.192E-11 dE for cont linesearch -0.192E-11
 ZBRENT:  can not reach accuracy
 opt :   0.0000  next Energy=     0.000000 (dE= 0.919E+02)
  20 F= -.91945851E+02 E0= -.91945851E+02  d E =0.181851E-07
 curvature:   0.00 expect dE= 0.206-319 dE for cont linesearch  0.206-319
 ZBRENT:  accuracy reached
 opt :   0.0000  next Energy=     0.000000 (dE= 0.919E+02)
For us, there is only the trying. The rest is not our business. ~T.S.Eliot
