<?xml version="1.0" encoding="ISO-8859-1"?>
<modeling>
 <generator>
  <i name="program" type="string">vasp </i>
  <i name="version" type="string">6.3.0  </i>
  <i name="subversion" type="string">20Jan22 (build Feb 21 2022 11:18:28) complex                          parallel </i>
  <i name="platform" type="string">CrayXC_GCC_OMP </i>
  <i name="date" type="string">2023 10 02 </i>
  <i name="time" type="string">17:00:49 </i>
 </generator>
 <incar>
  <i type="int" name="ISTART">     1</i>
  <i type="string" name="PREC">Accurate  (Precision level)</i>
  <i type="string" name="ALGO">FAST      (SCF minimisation algorithm</i>
  <i type="logical" name="ADDGRID"> T  </i>
  <i type="int" name="ISPIN">     1</i>
  <i type="int" name="INIWAV">     1</i>
  <i type="int" name="NELM">   500</i>
  <i type="int" name="NELMIN">     5</i>
  <i type="int" name="IBRION">     2</i>
  <i name="EDIFF">      0.00000001</i>
  <i name="EDIFFG">     -0.00000010</i>
  <i type="int" name="NSW">   200</i>
  <i type="int" name="ISIF">     2</i>
  <i type="int" name="ISYM">     2</i>
  <i type="int" name="NBLOCK">     1</i>
  <i name="ENMAX">    600.00000000</i>
  <i type="int" name="NEDOS">  1000</i>
  <i type="logical" name="LREAL"> F  </i>
  <i type="logical" name="LPLANE"> T  </i>
  <i type="int" name="ISMEAR">     0</i>
  <i name="SIGMA">      0.01000000</i>
  <i type="int" name="NWRITE">     2</i>
  <i type="int" name="LMAXMIX">     4</i>
  <i type="int" name="LORBIT">    11</i>
  <i type="int" name="ICORELEVEL">     1</i>
  <i type="string" name="GGA">PS     (PBEsol exchange-correlation)</i>
 </incar>
 <primitive_cell>
  <structure name="primitive_cell" >
   <crystal>
    <varray name="basis" >
     <v>       0.00000000       5.44370237       5.44370237 </v>
     <v>       5.44370237       0.00000000       5.44370237 </v>
     <v>       5.44370237       5.44370237       0.00000000 </v>
    </varray>
    <i name="volume">    322.63621478 </i>
    <varray name="rec_basis" >
     <v>      -0.09184925       0.09184925       0.09184925 </v>
     <v>       0.09184925      -0.09184925       0.09184925 </v>
     <v>       0.09184925       0.09184925      -0.09184925 </v>
    </varray>
   </crystal>
   <varray name="positions" >
    <v>       0.12559428       0.12544069       0.12529412 </v>
    <v>       0.62492188       0.12490423       0.12595270 </v>
    <v>       0.12474603       0.62495754       0.12554301 </v>
    <v>       0.62568377       0.62443573       0.12445031 </v>
    <v>       0.12484131       0.12586265       0.62587769 </v>
    <v>       0.62517214       0.12474251       0.62552643 </v>
    <v>       0.12520280       0.62540766       0.62528821 </v>
    <v>       0.62538577       0.62560848       0.62545670 </v>
    <v>       0.99985281       0.00089526       0.00045304 </v>
    <v>       0.49948385       0.99976920       0.00064355 </v>
    <v>       0.99953963       0.50038148       0.00034469 </v>
    <v>       0.50045390       0.50065763       0.99965620 </v>
    <v>       0.99992529       0.00041396       0.50016771 </v>
    <v>       0.50036506       0.99947814       0.50077689 </v>
    <v>       0.99957831       0.49947040       0.50076889 </v>
    <v>       0.49979694       0.49963581       0.50086376 </v>
   </varray>
  </structure>
  <varray name="primitive_index" >
   <v type="int" >        1 </v>
   <v type="int" >        2 </v>
   <v type="int" >        3 </v>
   <v type="int" >        4 </v>
   <v type="int" >        5 </v>
   <v type="int" >        6 </v>
   <v type="int" >        7 </v>
   <v type="int" >        8 </v>
   <v type="int" >        9 </v>
   <v type="int" >       10 </v>
   <v type="int" >       11 </v>
   <v type="int" >       12 </v>
   <v type="int" >       13 </v>
   <v type="int" >       14 </v>
   <v type="int" >       15 </v>
   <v type="int" >       16 </v>
  </varray>
 </primitive_cell>
 <kpoints>
  <generation param="Gamma">
   <v type="int" name="divisions">       6        6        6 </v>
   <v name="usershift">      0.00000000       0.00000000       0.00000000 </v>
   <v name="genvec1">      0.16666667       0.00000000      -0.00000000 </v>
   <v name="genvec2">      0.00000000       0.16666667       0.00000000 </v>
   <v name="genvec3">     -0.00000000      -0.00000000       0.16666667 </v>
   <v name="shift">      0.00000000       0.00000000       0.00000000 </v>
  </generation>
  <varray name="kpointlist" >
   <v>       0.00000000       0.00000000       0.00000000 </v>
   <v>       0.16666667       0.00000000       0.00000000 </v>
   <v>       0.00000000       0.16666667       0.00000000 </v>
   <v>       0.00000000       0.00000000       0.16666667 </v>
   <v>       0.16666667       0.16666667       0.16666667 </v>
   <v>       0.33333333       0.00000000       0.00000000 </v>
   <v>       0.00000000       0.33333333       0.00000000 </v>
   <v>       0.00000000       0.00000000       0.33333333 </v>
   <v>       0.33333333       0.33333333       0.33333333 </v>
   <v>       0.50000000       0.00000000       0.00000000 </v>
   <v>       0.00000000       0.50000000       0.00000000 </v>
   <v>       0.00000000       0.00000000       0.50000000 </v>
   <v>       0.50000000       0.50000000       0.50000000 </v>
   <v>       0.16666667       0.16666667       0.00000000 </v>
   <v>       0.00000000       0.16666667       0.16666667 </v>
   <v>       0.16666667       0.00000000       0.16666667 </v>
   <v>       0.33333333       0.16666667       0.00000000 </v>
   <v>       0.00000000       0.33333333       0.16666667 </v>
   <v>       0.16666667       0.00000000       0.33333333 </v>
   <v>       0.16666667       0.16666667      -0.16666667 </v>
   <v>       0.33333333       0.16666667       0.33333333 </v>
   <v>       0.16666667       0.33333333       0.00000000 </v>
   <v>       0.16666667      -0.16666667      -0.16666667 </v>
   <v>       0.33333333       0.33333333       0.16666667 </v>
   <v>       0.00000000       0.16666667       0.33333333 </v>
   <v>      -0.16666667       0.16666667      -0.16666667 </v>
   <v>       0.16666667       0.33333333       0.33333333 </v>
   <v>       0.33333333       0.00000000       0.16666667 </v>
   <v>       0.50000000       0.16666667       0.00000000 </v>
   <v>       0.00000000       0.50000000       0.16666667 </v>
   <v>       0.16666667       0.00000000       0.50000000 </v>
   <v>       0.16666667       0.16666667      -0.33333333 </v>
   <v>       0.50000000       0.33333333       0.50000000 </v>
   <v>       0.16666667       0.50000000       0.00000000 </v>
   <v>       0.33333333      -0.16666667      -0.16666667 </v>
   <v>       0.50000000       0.50000000       0.33333333 </v>
   <v>       0.00000000       0.16666667       0.50000000 </v>
   <v>      -0.16666667       0.33333333      -0.16666667 </v>
   <v>       0.33333333       0.50000000       0.50000000 </v>
   <v>       0.50000000       0.00000000       0.16666667 </v>
   <v>      -0.33333333       0.16666667       0.00000000 </v>
   <v>       0.00000000      -0.33333333       0.16666667 </v>
   <v>       0.16666667       0.00000000      -0.33333333 </v>
   <v>       0.16666667       0.16666667       0.50000000 </v>
   <v>      -0.33333333       0.50000000      -0.33333333 </v>
   <v>       0.16666667      -0.33333333       0.00000000 </v>
   <v>       0.50000000      -0.16666667      -0.16666667 </v>
   <v>      -0.33333333      -0.33333333       0.50000000 </v>
   <v>       0.00000000       0.16666667      -0.33333333 </v>
   <v>      -0.16666667       0.50000000      -0.16666667 </v>
   <v>       0.50000000      -0.33333333      -0.33333333 </v>
   <v>      -0.33333333       0.00000000       0.16666667 </v>
   <v>      -0.16666667       0.16666667       0.00000000 </v>
   <v>       0.00000000      -0.16666667       0.16666667 </v>
   <v>       0.16666667       0.00000000      -0.16666667 </v>
   <v>       0.16666667       0.16666667       0.33333333 </v>
   <v>      -0.16666667      -0.33333333      -0.16666667 </v>
   <v>      -0.33333333      -0.16666667      -0.16666667 </v>
   <v>       0.33333333       0.33333333       0.00000000 </v>
   <v>       0.00000000       0.33333333       0.33333333 </v>
   <v>       0.33333333       0.00000000       0.33333333 </v>
   <v>       0.50000000       0.33333333       0.00000000 </v>
   <v>       0.00000000       0.50000000       0.33333333 </v>
   <v>       0.33333333       0.00000000       0.50000000 </v>
   <v>       0.33333333       0.33333333      -0.16666667 </v>
   <v>       0.50000000       0.16666667       0.50000000 </v>
   <v>       0.33333333       0.50000000       0.00000000 </v>
   <v>       0.16666667      -0.33333333      -0.33333333 </v>
   <v>       0.50000000       0.50000000       0.16666667 </v>
   <v>       0.00000000       0.33333333       0.50000000 </v>
   <v>      -0.33333333       0.16666667      -0.33333333 </v>
   <v>       0.16666667       0.50000000       0.50000000 </v>
   <v>       0.50000000       0.00000000       0.33333333 </v>
   <v>      -0.33333333       0.33333333       0.00000000 </v>
   <v>       0.00000000      -0.33333333       0.33333333 </v>
   <v>       0.33333333       0.00000000      -0.33333333 </v>
   <v>       0.33333333       0.33333333      -0.33333333 </v>
   <v>      -0.33333333       0.33333333      -0.33333333 </v>
   <v>       0.33333333      -0.33333333      -0.33333333 </v>
   <v>       0.50000000       0.50000000       0.00000000 </v>
   <v>       0.00000000       0.50000000       0.50000000 </v>
   <v>       0.50000000       0.00000000       0.50000000 </v>
   <v>       0.50000000       0.33333333       0.16666667 </v>
   <v>       0.16666667       0.50000000       0.33333333 </v>
   <v>       0.33333333       0.16666667       0.50000000 </v>
   <v>       0.33333333       0.16666667      -0.16666667 </v>
   <v>       0.50000000       0.16666667       0.33333333 </v>
   <v>       0.16666667      -0.33333333      -0.16666667 </v>
   <v>       0.16666667       0.33333333      -0.16666667 </v>
   <v>       0.16666667      -0.16666667      -0.33333333 </v>
   <v>       0.33333333       0.50000000       0.16666667 </v>
   <v>      -0.16666667       0.16666667      -0.33333333 </v>
   <v>      -0.33333333       0.16666667      -0.16666667 </v>
   <v>       0.16666667       0.33333333       0.50000000 </v>
   <v>      -0.33333333       0.33333333       0.16666667 </v>
   <v>       0.16666667      -0.33333333       0.33333333 </v>
   <v>       0.33333333       0.16666667      -0.33333333 </v>
   <v>      -0.33333333       0.33333333       0.50000000 </v>
   <v>       0.16666667       0.50000000      -0.16666667 </v>
   <v>       0.33333333      -0.16666667      -0.33333333 </v>
   <v>       0.50000000      -0.33333333       0.33333333 </v>
   <v>      -0.16666667       0.16666667       0.50000000 </v>
   <v>      -0.33333333       0.33333333      -0.16666667 </v>
   <v>       0.33333333       0.50000000      -0.33333333 </v>
   <v>       0.50000000      -0.16666667       0.16666667 </v>
   <v>      -0.16666667      -0.33333333       0.33333333 </v>
   <v>      -0.33333333       0.50000000       0.16666667 </v>
   <v>       0.16666667      -0.33333333       0.50000000 </v>
   <v>       0.50000000       0.16666667      -0.33333333 </v>
   <v>       0.50000000       0.33333333      -0.16666667 </v>
   <v>      -0.33333333       0.16666667       0.50000000 </v>
   <v>       0.16666667       0.50000000      -0.33333333 </v>
  </varray>
  <varray name="weights" >
   <v>       0.00462963 </v>
   <v>       0.00925926 </v>
   <v>       0.00925926 </v>
   <v>       0.00925926 </v>
   <v>       0.00925926 </v>
   <v>       0.00925926 </v>
   <v>       0.00925926 </v>
   <v>       0.00925926 </v>
   <v>       0.00925926 </v>
   <v>       0.00462963 </v>
   <v>       0.00462963 </v>
   <v>       0.00462963 </v>
   <v>       0.00462963 </v>
   <v>       0.00925926 </v>
   <v>       0.00925926 </v>
   <v>       0.00925926 </v>
   <v>       0.00925926 </v>
   <v>       0.00925926 </v>
   <v>       0.00925926 </v>
   <v>       0.00925926 </v>
   <v>       0.00925926 </v>
   <v>       0.00925926 </v>
   <v>       0.00925926 </v>
   <v>       0.00925926 </v>
   <v>       0.00925926 </v>
   <v>       0.00925926 </v>
   <v>       0.00925926 </v>
   <v>       0.00925926 </v>
   <v>       0.00925926 </v>
   <v>       0.00925926 </v>
   <v>       0.00925926 </v>
   <v>       0.00925926 </v>
   <v>       0.00925926 </v>
   <v>       0.00925926 </v>
   <v>       0.00925926 </v>
   <v>       0.00925926 </v>
   <v>       0.00925926 </v>
   <v>       0.00925926 </v>
   <v>       0.00925926 </v>
   <v>       0.00925926 </v>
   <v>       0.00925926 </v>
   <v>       0.00925926 </v>
   <v>       0.00925926 </v>
   <v>       0.00925926 </v>
   <v>       0.00925926 </v>
   <v>       0.00925926 </v>
   <v>       0.00925926 </v>
   <v>       0.00925926 </v>
   <v>       0.00925926 </v>
   <v>       0.00925926 </v>
   <v>       0.00925926 </v>
   <v>       0.00925926 </v>
   <v>       0.00925926 </v>
   <v>       0.00925926 </v>
   <v>       0.00925926 </v>
   <v>       0.00925926 </v>
   <v>       0.00925926 </v>
   <v>       0.00925926 </v>
   <v>       0.00925926 </v>
   <v>       0.00925926 </v>
   <v>       0.00925926 </v>
   <v>       0.00925926 </v>
   <v>       0.00925926 </v>
   <v>       0.00925926 </v>
   <v>       0.00925926 </v>
   <v>       0.00925926 </v>
   <v>       0.00925926 </v>
   <v>       0.00925926 </v>
   <v>       0.00925926 </v>
   <v>       0.00925926 </v>
   <v>       0.00925926 </v>
   <v>       0.00925926 </v>
   <v>       0.00925926 </v>
   <v>       0.00925926 </v>
   <v>       0.00925926 </v>
   <v>       0.00925926 </v>
   <v>       0.00925926 </v>
   <v>       0.00925926 </v>
   <v>       0.00925926 </v>
   <v>       0.00462963 </v>
   <v>       0.00462963 </v>
   <v>       0.00462963 </v>
   <v>       0.00925926 </v>
   <v>       0.00925926 </v>
   <v>       0.00925926 </v>
   <v>       0.00925926 </v>
   <v>       0.00925926 </v>
   <v>       0.00925926 </v>
   <v>       0.00925926 </v>
   <v>       0.00925926 </v>
   <v>       0.00925926 </v>
   <v>       0.00925926 </v>
   <v>       0.00925926 </v>
   <v>       0.00925926 </v>
   <v>       0.00925926 </v>
   <v>       0.00925926 </v>
   <v>       0.00925926 </v>
   <v>       0.00925926 </v>
   <v>       0.00925926 </v>
   <v>       0.00925926 </v>
   <v>       0.00925926 </v>
   <v>       0.00925926 </v>
   <v>       0.00925926 </v>
   <v>       0.00925926 </v>
   <v>       0.00925926 </v>
   <v>       0.00925926 </v>
   <v>       0.00925926 </v>
   <v>       0.00925926 </v>
   <v>       0.00925926 </v>
   <v>       0.00925926 </v>
   <v>       0.00925926 </v>
   <v>       0.00925926 </v>
  </varray>
 </kpoints>
 <parameters>
  <separator name="general" >
   <i type="string" name="SYSTEM">unknown system</i>
   <i type="logical" name="LCOMPAT"> F  </i>
  </separator>
  <separator name="electronic" >
   <i type="string" name="PREC">accura</i>
   <i name="ENMAX">    600.00000000</i>
   <i name="ENAUG">    322.06900000</i>
   <i name="EDIFF">      0.00000001</i>
   <i type="int" name="IALGO">    68</i>
   <i type="int" name="IWAVPR">    11</i>
   <i type="int" name="NBANDS">    48</i>
   <i type="int" name="NBANDSLOW">    -1</i>
   <i type="int" name="NBANDSHIGH">    -1</i>
   <i name="NELECT">     64.00000000</i>
   <i type="int" name="TURBO">     0</i>
   <i type="int" name="IRESTART">     0</i>
   <i type="int" name="NREBOOT">     0</i>
   <i type="int" name="NMIN">     0</i>
   <i name="EREF">      0.00000000</i>
   <separator name="electronic smearing" >
    <i type="int" name="ISMEAR">     0</i>
    <i name="SIGMA">      0.01000000</i>
    <i name="KSPACING">      0.50000000</i>
    <i type="logical" name="KGAMMA"> T  </i>
    <i type="logical" name="KBLOWUP"> T  </i>
   </separator>
   <separator name="electronic projectors" >
    <i type="logical" name="LREAL"> F  </i>
    <v name="ROPT">      0.00000000</v>
    <i type="int" name="LMAXPAW">  -100</i>
    <i type="int" name="LMAXMIX">     4</i>
    <i type="logical" name="NLSPLINE"> F  </i>
   </separator>
   <separator name="electronic startup" >
    <i type="int" name="ISTART">     0</i>
    <i type="int" name="ICHARG">     2</i>
    <i type="int" name="INIWAV">     1</i>
   </separator>
   <separator name="electronic spin" >
    <i type="int" name="ISPIN">     1</i>
    <i type="logical" name="LNONCOLLINEAR"> F  </i>
    <v name="MAGMOM">      1.00000000      1.00000000      1.00000000      1.00000000      1.00000000      1.00000000      1.00000000      1.00000000      1.00000000      1.00000000      1.00000000      1.00000000      1.00000000      1.00000000      1.00000000      1.00000000</v>
    <i name="NUPDOWN">     -1.00000000</i>
    <i type="logical" name="LSORBIT"> F  </i>
    <v name="SAXIS">      0.00000000      0.00000000      1.00000000</v>
    <i type="logical" name="LSPIRAL"> F  </i>
    <v name="QSPIRAL">      0.00000000      0.00000000      0.00000000</v>
    <i type="logical" name="LZEROZ"> F  </i>
   </separator>
   <separator name="electronic exchange-correlation" >
    <i type="logical" name="LASPH"> F  </i>
    <i type="logical" name="LMETAGGA"> F  </i>
   </separator>
   <separator name="electronic convergence" >
    <i type="int" name="NELM">   500</i>
    <i type="int" name="NELMDL">     0</i>
    <i type="int" name="NELMIN">     5</i>
    <i name="ENINI">    600.00000000</i>
    <separator name="electronic convergence detail" >
     <i type="logical" name="LDIAG"> T  </i>
     <i type="logical" name="LSUBROT"> F  </i>
     <i name="WEIMIN">      0.00100000</i>
     <i name="EBREAK">      0.00000000</i>
     <i name="DEPER">      0.30000000</i>
     <i type="int" name="NRMM">     4</i>
     <i name="TIME">      0.40000000</i>
    </separator>
   </separator>
   <separator name="electronic mixer" >
    <i name="AMIX">      0.40000000</i>
    <i name="BMIX">      1.00000000</i>
    <i name="AMIN">      0.10000000</i>
    <i name="AMIX_MAG">      1.60000000</i>
    <i name="BMIX_MAG">      1.00000000</i>
    <separator name="electronic mixer details" >
     <i type="int" name="IMIX">     4</i>
     <i type="logical" name="MIXFIRST"> F  </i>
     <i type="int" name="MAXMIX">   -45</i>
     <i name="WC">    100.00000000</i>
     <i type="int" name="INIMIX">     1</i>
     <i type="int" name="MIXPRE">     1</i>
     <i type="int" name="MREMOVE">     5</i>
    </separator>
   </separator>
   <separator name="electronic dipolcorrection" >
    <i type="logical" name="LDIPOL"> F  </i>
    <i type="logical" name="LMONO"> F  </i>
    <i type="int" name="IDIPOL">     0</i>
    <i name="EPSILON">      1.00000000</i>
    <v name="DIPOL">   -100.00000000   -100.00000000   -100.00000000</v>
    <i name="EFIELD">      0.00000000</i>
   </separator>
  </separator>
  <separator name="grids" >
   <i type="int" name="NGX">    64</i>
   <i type="int" name="NGY">    64</i>
   <i type="int" name="NGZ">    64</i>
   <i type="int" name="NGXF">   128</i>
   <i type="int" name="NGYF">   128</i>
   <i type="int" name="NGZF">   128</i>
   <i type="logical" name="ADDGRID"> T  </i>
  </separator>
  <separator name="ionic" >
   <i type="int" name="NSW">   200</i>
   <i type="int" name="IBRION">     2</i>
   <i type="int" name="MDALGO">     0</i>
   <i type="int" name="ISIF">     2</i>
   <i name="PSTRESS">      0.00000000</i>
   <i name="EDIFFG">     -0.00000010</i>
   <i type="int" name="NFREE">     1</i>
   <i name="POTIM">      0.50000000</i>
   <i name="SMASS">     -3.00000000</i>
   <i name="SCALEE">      1.00000000</i>
  </separator>
  <separator name="ionic md" >
   <i name="TEBEG">      0.00010000</i>
   <i name="TEEND">      0.00010000</i>
   <i type="int" name="NBLOCK">     1</i>
   <i type="int" name="KBLOCK">   200</i>
   <i type="int" name="NPACO">   256</i>
   <i name="APACO">     10.00000000</i>
  </separator>
  <separator name="symmetry" >
   <i type="int" name="ISYM">     2</i>
   <i name="SYMPREC">      0.00001000</i>
  </separator>
  <separator name="dos" >
   <i type="int" name="LORBIT">    11</i>
   <v name="RWIGS">     -1.00000000</v>
   <i type="int" name="NEDOS">  1000</i>
   <i name="EMIN">     10.00000000</i>
   <i name="EMAX">    -10.00000000</i>
   <i name="EFERMI">      0.00000000</i>
  </separator>
  <separator name="writing" >
   <i type="int" name="NWRITE">     2</i>
   <i type="logical" name="LWAVE"> T  </i>
   <i type="logical" name="LDOWNSAMPLE"> F  </i>
   <i type="logical" name="LCHARG"> T  </i>
   <i type="logical" name="LPARD"> F  </i>
   <i type="logical" name="LVTOT"> F  </i>
   <i type="logical" name="LVHAR"> F  </i>
   <i type="logical" name="LELF"> F  </i>
   <i type="logical" name="LOPTICS"> F  </i>
   <v name="STM">      0.00000000      0.00000000      0.00000000      0.00000000      0.00000000      0.00000000      0.00000000</v>
  </separator>
  <separator name="performance" >
   <i type="int" name="NPAR">     8</i>
   <i type="int" name="NSIM">     4</i>
   <i type="int" name="NBLK">    -1</i>
   <i type="logical" name="LPLANE"> T  </i>
   <i type="logical" name="LSCALAPACK"> T  </i>
   <i type="logical" name="LSCAAWARE"> F  </i>
   <i type="logical" name="LSCALU"> F  </i>
   <i type="logical" name="LASYNC"> F  </i>
   <i type="logical" name="LORBITALREAL"> F  </i>
  </separator>
  <separator name="miscellaneous" >
   <i type="int" name="IDIOT">     3</i>
   <i type="int" name="PHON_NSTRUCT">    -1</i>
   <i type="logical" name="LMUSIC"> F  </i>
   <v name="POMASS">     28.08500000</v>
   <v name="DARWINR">      0.00000000</v>
   <v name="DARWINV">      1.00000000</v>
   <i type="logical" name="LCORR"> T  </i>
  </separator>
  <i type="logical" name="GGA_COMPAT"> T  </i>
  <i type="logical" name="LBERRY"> F  </i>
  <i type="int" name="ICORELEVEL">     1</i>
  <i type="int" name="CLNT">     1</i>
  <i type="int" name="CLN">     1</i>
  <i type="int" name="CLL">     0</i>
  <i name="CLZ">      0.00000000</i>
  <i type="logical" name="LDAU"> F  </i>
  <i type="int" name="I_CONSTRAINED_M">     0</i>
  <separator name="electronic exchange-correlation" >
   <i type="string" name="GGA">PS</i>
   <i type="int" name="VOSKOWN">     0</i>
   <i type="logical" name="LHFCALC"> F  </i>
   <i type="string" name="PRECFOCK"></i>
   <i type="logical" name="LSYMGRAD"> F  </i>
   <i type="logical" name="LHFONE"> F  </i>
   <i type="logical" name="LRHFCALC"> F  </i>
   <i type="logical" name="LTHOMAS"> F  </i>
   <i type="logical" name="LMODELHF"> F  </i>
   <i type="logical" name="LFOCKACE"> F  </i>
   <i name="ENCUT4O">     -1.00000000</i>
   <i type="int" name="EXXOEP">     0</i>
   <i type="int" name="FOURORBIT">     0</i>
   <i name="AEXX">      0.00000000</i>
   <i name="HFALPHA">      0.00000000</i>
   <i name="MCALPHA">      0.00000000</i>
   <i name="ALDAX">      1.00000000</i>
   <i name="AGGAX">      1.00000000</i>
   <i name="ALDAC">      1.00000000</i>
   <i name="AGGAC">      1.00000000</i>
   <i type="int" name="NKREDX">     1</i>
   <i type="int" name="NKREDY">     1</i>
   <i type="int" name="NKREDZ">     1</i>
   <i type="logical" name="SHIFTRED"> F  </i>
   <i type="logical" name="ODDONLY"> F  </i>
   <i type="logical" name="EVENONLY"> F  </i>
   <i type="int" name="LMAXFOCK">     0</i>
   <i type="int" name="NMAXFOCKAE">     0</i>
   <i type="logical" name="LFOCKAEDFT"> F  </i>
   <i name="HFSCREEN">      0.00000000</i>
   <i name="HFSCREENC">      0.00000000</i>
   <i type="int" name="NBANDSGWLOW">     0</i>
  </separator>
  <separator name="vdW DFT" >
   <i type="logical" name="LUSE_VDW"> F  </i>
   <i name="Zab_VDW">     -0.84910000</i>
   <i name="PARAM1">      0.12340000</i>
   <i name="PARAM2">      1.00000000</i>
   <i name="PARAM3">      0.00000000</i>
  </separator>
  <separator name="model GW" >
   <i type="int" name="MODEL_GW">     0</i>
   <i name="MODEL_EPS0">     12.09885805</i>
   <i name="MODEL_ALPHA">      1.00000000</i>
  </separator>
  <separator name="linear response parameters" >
   <i type="logical" name="LEPSILON"> F  </i>
   <i type="logical" name="LRPA"> F  </i>
   <i type="logical" name="LNABLA"> F  </i>
   <i type="logical" name="LVEL"> F  </i>
   <i name="CSHIFT">      0.10000000</i>
   <i name="OMEGAMAX">     -1.00000000</i>
   <i name="DEG_THRESHOLD">      0.00200000</i>
   <i name="RTIME">     -0.10000000</i>
   <i name="WPLASMAI">      0.00000000</i>
   <v name="DFIELD">      0.00000000      0.00000000      0.00000000</v>
   <v name="WPLASMA">      0.00000000      0.00000000      0.00000000      0.00000000      0.00000000      0.00000000      0.00000000      0.00000000      0.00000000</v>
  </separator>
  <separator name="orbital magnetization" >
   <i type="logical" name="NUCIND"> F  </i>
   <v name="MAGPOS">      0.00000000      0.00000000      0.00000000</v>
   <i type="logical" name="LNICSALL"> T  </i>
   <i type="logical" name="ORBITALMAG"> F  </i>
   <i type="logical" name="LMAGBLOCH"> F  </i>
   <i type="logical" name="LCHIMAG"> F  </i>
   <i type="logical" name="LGAUGE"> T  </i>
   <i type="int" name="MAGATOM">     0</i>
   <v name="MAGDIPOL">      0.00000000      0.00000000      0.00000000</v>
   <v name="AVECCONST">      0.00000000      0.00000000      0.00000000</v>
  </separator>
  <separator name="response functions" >
   <i type="logical" name="LFINITE_TEMPERATURE"> F  </i>
   <i type="logical" name="LADDER"> F  </i>
   <i type="logical" name="LRPAFORCE"> F  </i>
   <i type="logical" name="LFXC"> F  </i>
   <i type="logical" name="LHARTREE"> T  </i>
   <i type="int" name="IBSE">     0</i>
   <v type="int" name="KPOINT">    -1     0     0     0</v>
   <i type="logical" name="LTCTC"> F  </i>
   <i type="logical" name="LTCTE"> F  </i>
   <i type="logical" name="LTETE"> F  </i>
   <i type="logical" name="LTRIPLET"> F  </i>
   <i type="logical" name="LFXCEPS"> F  </i>
   <i type="logical" name="LFXHEG"> F  </i>
   <i type="int" name="NATURALO">     2</i>
   <i type="logical" name="LHOLEGF"> F  </i>
   <i type="logical" name="L2ORDER"> F  </i>
   <i type="logical" name="LDMP1"> F  </i>
   <i type="logical" name="LMP2LT"> F  </i>
   <i type="logical" name="LSMP2LT"> F  </i>
   <i type="logical" name="LGWLF"> F  </i>
   <i name="ENCUTGW">     -2.00000000</i>
   <i name="ENCUTGWSOFT">     -2.00000000</i>
   <i name="ENCUTLF">     -1.00000000</i>
   <i type="logical" name="LESF_SPLINES"> F  </i>
   <i type="int" name="LMAXMP2">    -1</i>
   <i name="SCISSOR">      0.00000000</i>
   <i type="int" name="NOMEGA">     0</i>
   <i type="int" name="NOMEGAR">     0</i>
   <i type="int" name="NBANDSGW">    -1</i>
   <i type="int" name="NBANDSO">    -1</i>
   <i type="int" name="NBANDSV">    -1</i>
   <i type="int" name="NELMGW">     1</i>
   <i type="int" name="NELMHF">     1</i>
   <i type="int" name="DIM">     3</i>
   <i type="int" name="IESPILON">     4</i>
   <i type="int" name="ANTIRES">     0</i>
   <i name="OMEGAMAX">    -30.00000000</i>
   <i name="OMEGAMIN">    -30.00000000</i>
   <i name="OMEGATL">   -200.00000000</i>
   <i type="int" name="OMEGAGRID">     0</i>
   <i name="CSHIFT">     -0.10000000</i>
   <i type="logical" name="LSELFENERGY"> F  </i>
   <i type="logical" name="LSPECTRAL"> F  </i>
   <i type="logical" name="LSPECTRALGW"> F  </i>
   <i type="logical" name="LSINGLES"> F  </i>
   <i type="logical" name="LFERMIGW"> F  </i>
   <i type="logical" name="ODDONLYGW"> F  </i>
   <i type="logical" name="EVENONLYGW"> F  </i>
   <i type="int" name="NKREDLFX">     1</i>
   <i type="int" name="NKREDLFY">     1</i>
   <i type="int" name="NKREDLFZ">     1</i>
   <i type="int" name="MAXMEM">  2800</i>
   <i type="int" name="TELESCOPE">     0</i>
   <i type="int" name="NTAUPAR">    -1</i>
   <i type="int" name="NOMEGAPAR">    -1</i>
   <i name="DAMP_NEWTON">      0.80000001</i>
   <i name="LAMBDA">      1.00000000</i>
  </separator>
  <separator name="External order field" >
   <i name="OFIELD_KAPPA">      0.00000000</i>
   <v name="OFIELD_K">      0.00000000      0.00000000      0.00000000</v>
   <i name="OFIELD_Q6_NEAR">      0.00000000</i>
   <i name="OFIELD_Q6_FAR">      0.00000000</i>
   <i name="OFIELD_A">      0.00000000</i>
  </separator>
  <separator name="optional k-points parameters" >
   <i type="int" name="KPOINTS_OPT_MODE">     1</i>
   <i type="logical" name="LKPOINTS_OPT"> F  </i>
  </separator>
 </parameters>
 <atominfo>
  <atoms>      16 </atoms>
  <types>       1 </types>
  <array name="atoms" >
   <dimension dim="1">ion</dimension>
   <field type="string">element</field>
   <field type="int">atomtype</field>
   <set>
    <rc><c>Si</c><c>   1</c></rc>
    <rc><c>Si</c><c>   1</c></rc>
    <rc><c>Si</c><c>   1</c></rc>
    <rc><c>Si</c><c>   1</c></rc>
    <rc><c>Si</c><c>   1</c></rc>
    <rc><c>Si</c><c>   1</c></rc>
    <rc><c>Si</c><c>   1</c></rc>
    <rc><c>Si</c><c>   1</c></rc>
    <rc><c>Si</c><c>   1</c></rc>
    <rc><c>Si</c><c>   1</c></rc>
    <rc><c>Si</c><c>   1</c></rc>
    <rc><c>Si</c><c>   1</c></rc>
    <rc><c>Si</c><c>   1</c></rc>
    <rc><c>Si</c><c>   1</c></rc>
    <rc><c>Si</c><c>   1</c></rc>
    <rc><c>Si</c><c>   1</c></rc>
   </set>
  </array>
  <array name="atomtypes" >
   <dimension dim="1">type</dimension>
   <field type="int">atomspertype</field>
   <field type="string">element</field>
   <field>mass</field>
   <field>valence</field>
   <field type="string">pseudopotential</field>
   <set>
    <rc><c>  16</c><c>Si</c><c>     28.08500000</c><c>      4.00000000</c><c>  PAW_PBE Si 05Jan2001                  </c></rc>
   </set>
  </array>
 </atominfo>
 <structure name="initialpos" >
  <crystal>
   <varray name="basis" >
    <v>       0.00000000       5.44370237       5.44370237 </v>
    <v>       5.44370237       0.00000000       5.44370237 </v>
    <v>       5.44370237       5.44370237       0.00000000 </v>
   </varray>
   <i name="volume">    322.63621478 </i>
   <varray name="rec_basis" >
    <v>      -0.09184925       0.09184925       0.09184925 </v>
    <v>       0.09184925      -0.09184925       0.09184925 </v>
    <v>       0.09184925       0.09184925      -0.09184925 </v>
   </varray>
  </crystal>
  <varray name="positions" >
   <v>       0.12559428       0.12544069       0.12529412 </v>
   <v>       0.62492188       0.12490423       0.12595270 </v>
   <v>       0.12474603       0.62495754       0.12554301 </v>
   <v>       0.62568377       0.62443573       0.12445031 </v>
   <v>       0.12484131       0.12586265       0.62587769 </v>
   <v>       0.62517214       0.12474251       0.62552643 </v>
   <v>       0.12520280       0.62540766       0.62528821 </v>
   <v>       0.62538577       0.62560848       0.62545670 </v>
   <v>       0.99985281       0.00089526       0.00045304 </v>
   <v>       0.49948385       0.99976920       0.00064355 </v>
   <v>       0.99953963       0.50038148       0.00034469 </v>
   <v>       0.50045390       0.50065763       0.99965620 </v>
   <v>       0.99992529       0.00041396       0.50016771 </v>
   <v>       0.50036506       0.99947814       0.50077689 </v>
   <v>       0.99957831       0.49947040       0.50076889 </v>
   <v>       0.49979694       0.49963581       0.50086376 </v>
  </varray>
 </structure>
 <calculation>
  <scstep>
   <time name="dav">    3.71    3.87</time>
   <time name="total">    3.81    3.98</time>
   <energy>
    <i name="alphaZ">     26.71045930 </i>
    <i name="ewald">  -1823.89229764 </i>
    <i name="hartreedc">    -88.92584723 </i>
    <i name="XCdc">   -139.86007915 </i>
    <i name="pawpsdc">   1399.65656354 </i>
    <i name="pawaedc">  -1123.04461034 </i>
    <i name="eentropy">     -0.00030555 </i>
    <i name="bandstr">    263.71177721 </i>
    <i name="atom">   1641.21197842 </i>
    <i name="e_fr_energy">    155.56763856 </i>
    <i name="e_wo_entrp">    155.56794411 </i>
    <i name="e_0_energy">    155.56779133 </i>
   </energy>
  </scstep>
  <scstep>
   <time name="dav">    4.30    4.32</time>
   <time name="total">    4.30    4.32</time>
   <energy>
    <i name="e_fr_energy">    -79.82016556 </i>
    <i name="e_wo_entrp">    -79.82016556 </i>
    <i name="e_0_energy">    -79.82016556 </i>
   </energy>
  </scstep>
  <scstep>
   <time name="dav">    4.46    4.48</time>
   <time name="total">    4.46    4.48</time>
   <energy>
    <i name="e_fr_energy">    -93.42793655 </i>
    <i name="e_wo_entrp">    -93.42793655 </i>
    <i name="e_0_energy">    -93.42793655 </i>
   </energy>
  </scstep>
  <scstep>
   <time name="dav">    4.38    4.39</time>
   <time name="total">    4.39    4.39</time>
   <energy>
    <i name="e_fr_energy">    -93.68497043 </i>
    <i name="e_wo_entrp">    -93.68497043 </i>
    <i name="e_0_energy">    -93.68497043 </i>
   </energy>
  </scstep>
  <scstep>
   <time name="dav">    4.29    4.31</time>
   <time name="total">    4.56    4.58</time>
   <energy>
    <i name="e_fr_energy">    -93.69159972 </i>
    <i name="e_wo_entrp">    -93.69159972 </i>
    <i name="e_0_energy">    -93.69159972 </i>
   </energy>
  </scstep>
  <scstep>
   <time name="diag">    1.24    1.24</time>
   <time name="diis">    2.02    2.02</time>
   <time name="orth">    0.09    0.09</time>
   <time name="total">    3.70    3.72</time>
   <energy>
    <i name="e_fr_energy">    -92.48237264 </i>
    <i name="e_wo_entrp">    -92.48237264 </i>
    <i name="e_0_energy">    -92.48237264 </i>
   </energy>
  </scstep>
  <scstep>
   <time name="diag">    1.23    1.23</time>
   <time name="diis">    1.97    1.97</time>
   <time name="orth">    0.09    0.09</time>
   <time name="total">    3.64    3.66</time>
   <energy>
    <i name="e_fr_energy">    -91.92650471 </i>
    <i name="e_wo_entrp">    -91.92650471 </i>
    <i name="e_0_energy">    -91.92650471 </i>
   </energy>
  </scstep>
  <scstep>
   <time name="diag">    1.23    1.23</time>
   <time name="diis">    2.01    2.01</time>
   <time name="orth">    0.09    0.09</time>
   <time name="total">    3.69    3.69</time>
   <energy>
    <i name="e_fr_energy">    -91.93657134 </i>
    <i name="e_wo_entrp">    -91.93657134 </i>
    <i name="e_0_energy">    -91.93657134 </i>
   </energy>
  </scstep>
  <scstep>
   <time name="diag">    1.23    1.23</time>
   <time name="diis">    2.04    2.04</time>
   <time name="orth">    0.09    0.09</time>
   <time name="total">    3.72    3.72</time>
   <energy>
    <i name="e_fr_energy">    -91.93992054 </i>
    <i name="e_wo_entrp">    -91.93992054 </i>
    <i name="e_0_energy">    -91.93992054 </i>
   </energy>
  </scstep>
  <scstep>
   <time name="diag">    1.25    1.26</time>
   <time name="diis">    2.11    2.11</time>
   <time name="orth">    0.10    0.10</time>
   <time name="total">    3.80    3.82</time>
   <energy>
    <i name="e_fr_energy">    -91.94047147 </i>
    <i name="e_wo_entrp">    -91.94047147 </i>
    <i name="e_0_energy">    -91.94047147 </i>
   </energy>
  </scstep>
  <scstep>
   <time name="diag">    1.23    1.23</time>
   <time name="diis">    2.02    2.02</time>
   <time name="orth">    0.09    0.09</time>
   <time name="total">    3.70    3.70</time>
   <energy>
    <i name="e_fr_energy">    -91.93941876 </i>
    <i name="e_wo_entrp">    -91.93941876 </i>
    <i name="e_0_energy">    -91.93941876 </i>
   </energy>
  </scstep>
  <scstep>
   <time name="diag">    1.23    1.23</time>
   <time name="diis">    1.98    1.98</time>
   <time name="orth">    0.09    0.09</time>
   <time name="total">    3.65    3.66</time>
   <energy>
    <i name="e_fr_energy">    -91.94058012 </i>
    <i name="e_wo_entrp">    -91.94058012 </i>
    <i name="e_0_energy">    -91.94058012 </i>
   </energy>
  </scstep>
  <scstep>
   <time name="diag">    1.23    1.23</time>
   <time name="diis">    1.99    1.99</time>
   <time name="orth">    0.09    0.10</time>
   <time name="total">    3.68    3.68</time>
   <energy>
    <i name="e_fr_energy">    -91.94064503 </i>
    <i name="e_wo_entrp">    -91.94064503 </i>
    <i name="e_0_energy">    -91.94064503 </i>
   </energy>
  </scstep>
  <scstep>
   <time name="diag">    1.24    1.25</time>
   <time name="diis">    2.07    2.07</time>
   <time name="orth">    0.09    0.09</time>
   <time name="total">    3.75    3.77</time>
   <energy>
    <i name="e_fr_energy">    -91.94064852 </i>
    <i name="e_wo_entrp">    -91.94064852 </i>
    <i name="e_0_energy">    -91.94064852 </i>
   </energy>
  </scstep>
  <scstep>
   <time name="diag">    1.23    1.23</time>
   <time name="diis">    1.97    1.98</time>
   <time name="orth">    0.09    0.09</time>
   <time name="total">    3.66    3.66</time>
   <energy>
    <i name="e_fr_energy">    -91.94064750 </i>
    <i name="e_wo_entrp">    -91.94064750 </i>
    <i name="e_0_energy">    -91.94064750 </i>
   </energy>
  </scstep>
  <scstep>
   <time name="diag">    1.27    1.27</time>
   <time name="diis">    2.07    2.07</time>
   <time name="orth">    0.09    0.09</time>
   <time name="total">    3.78    3.80</time>
   <energy>
    <i name="e_fr_energy">    -91.94064893 </i>
    <i name="e_wo_entrp">    -91.94064893 </i>
    <i name="e_0_energy">    -91.94064893 </i>
   </energy>
  </scstep>
  <scstep>
   <time name="diag">    1.23    1.23</time>
   <time name="diis">    1.98    1.98</time>
   <time name="orth">    0.09    0.09</time>
   <time name="total">    3.66    3.66</time>
   <energy>
    <i name="e_fr_energy">    -91.94064872 </i>
    <i name="e_wo_entrp">    -91.94064872 </i>
    <i name="e_0_energy">    -91.94064872 </i>
   </energy>
  </scstep>
  <scstep>
   <time name="diag">    1.23    1.23</time>
   <time name="diis">    2.02    2.02</time>
   <time name="orth">    0.09    0.09</time>
   <time name="total">    3.69    3.71</time>
   <energy>
    <i name="e_fr_energy">    -91.94064898 </i>
    <i name="e_wo_entrp">    -91.94064898 </i>
    <i name="e_0_energy">    -91.94064898 </i>
   </energy>
  </scstep>
  <scstep>
   <time name="diag">    1.23    1.23</time>
   <time name="diis">    1.70    1.70</time>
   <time name="orth">    0.10    0.10</time>
   <time name="total">    3.39    3.39</time>
   <energy>
    <i name="e_fr_energy">    -91.94064894 </i>
    <i name="e_wo_entrp">    -91.94064894 </i>
    <i name="e_0_energy">    -91.94064894 </i>
   </energy>
  </scstep>
  <scstep>
   <time name="diag">    1.23    1.23</time>
   <time name="diis">    1.45    1.45</time>
   <time name="orth">    0.09    0.09</time>
   <time name="total">    2.88    2.90</time>
   <energy>
    <i name="alphaZ">     26.71045930 </i>
    <i name="ewald">  -1823.89229764 </i>
    <i name="hartreedc">   -117.54041255 </i>
    <i name="XCdc">   -135.04605904 </i>
    <i name="pawpsdc">   6843.82405192 </i>
    <i name="pawaedc">  -6568.88469307 </i>
    <i name="eentropy">     -0.00000000 </i>
    <i name="bandstr">     41.67632370 </i>
    <i name="atom">   1641.21197842 </i>
    <i name="e_fr_energy">    -91.94064894 </i>
    <i name="e_wo_entrp">    -91.94064894 </i>
    <i name="e_0_energy">    -91.94064894 </i>
   </energy>
  </scstep>
  <structure>
   <crystal>
    <varray name="basis" >
     <v>       0.00000000       5.44370237       5.44370237 </v>
     <v>       5.44370237       0.00000000       5.44370237 </v>
     <v>       5.44370237       5.44370237       0.00000000 </v>
    </varray>
    <i name="volume">    322.63621478 </i>
    <varray name="rec_basis" >
     <v>      -0.09184925       0.09184925       0.09184925 </v>
     <v>       0.09184925      -0.09184925       0.09184925 </v>
     <v>       0.09184925       0.09184925      -0.09184925 </v>
    </varray>
   </crystal>
   <varray name="positions" >
    <v>       0.12559428       0.12544069       0.12529412 </v>
    <v>       0.62492188       0.12490423       0.12595270 </v>
    <v>       0.12474603       0.62495754       0.12554301 </v>
    <v>       0.62568377       0.62443573       0.12445031 </v>
    <v>       0.12484131       0.12586265       0.62587769 </v>
    <v>       0.62517214       0.12474251       0.62552643 </v>
    <v>       0.12520280       0.62540766       0.62528821 </v>
    <v>       0.62538577       0.62560848       0.62545670 </v>
    <v>       0.99985281       0.00089526       0.00045304 </v>
    <v>       0.49948385       0.99976920       0.00064355 </v>
    <v>       0.99953963       0.50038148       0.00034469 </v>
    <v>       0.50045390       0.50065763       0.99965620 </v>
    <v>       0.99992529       0.00041396       0.50016771 </v>
    <v>       0.50036506       0.99947814       0.50077689 </v>
    <v>       0.99957831       0.49947040       0.50076889 </v>
    <v>       0.49979694       0.49963581       0.50086376 </v>
   </varray>
  </structure>
  <varray name="forces" >
   <v>       0.01841433      -0.04735268      -0.05283668 </v>
   <v>      -0.01793586      -0.05583118       0.01259872 </v>
   <v>       0.01984341      -0.00692187       0.05083019 </v>
   <v>       0.14031093       0.03034414      -0.03896441 </v>
   <v>      -0.10482306       0.00752939      -0.06367959 </v>
   <v>       0.02036747      -0.00028856      -0.00532961 </v>
   <v>      -0.02322262      -0.03949999      -0.04603829 </v>
   <v>      -0.07864979      -0.04938302      -0.08719763 </v>
   <v>      -0.01699969       0.04620736      -0.04890207 </v>
   <v>      -0.02416445       0.07282485       0.06936215 </v>
   <v>      -0.03746900       0.03560992       0.05420378 </v>
   <v>      -0.00881119       0.00070040      -0.11711710 </v>
   <v>       0.02977802       0.05258481       0.03096188 </v>
   <v>       0.05775110      -0.05466480       0.02828492 </v>
   <v>       0.04525670       0.01364913       0.12754970 </v>
   <v>      -0.01964631      -0.00550790       0.08627404 </v>
  </varray>
  <varray name="stress" >
   <v>      -4.03186930      -0.83712223      -0.58691191 </v>
   <v>      -0.83712225      -4.01995243      -0.09517739 </v>
   <v>      -0.58691192      -0.09517736      -4.03746293 </v>
  </varray>
  <energy>
   <i name="e_fr_energy">    -91.94064894 </i>
   <i name="e_wo_entrp">    -91.94064894 </i>
   <i name="e_0_energy">    -91.94064894 </i>
  </energy>
  <time name="totalsc">   83.42   83.84</time>
 </calculation>
 <calculation>
  <scstep>
   <time name="dav">    4.11    4.11</time>
   <time name="total">    4.44    4.44</time>
   <energy>
    <i name="alphaZ">     26.71045930 </i>
    <i name="ewald">  -1823.90596843 </i>
    <i name="hartreedc">   -117.53292326 </i>
    <i name="XCdc">   -135.04609502 </i>
    <i name="pawpsdc">   6843.66949625 </i>
    <i name="pawaedc">  -6568.73014633 </i>
    <i name="eentropy">     -0.00000000 </i>
    <i name="bandstr">     41.67986084 </i>
    <i name="atom">   1641.21197842 </i>
    <i name="e_fr_energy">    -91.94333822 </i>
    <i name="e_wo_entrp">    -91.94333822 </i>
    <i name="e_0_energy">    -91.94333822 </i>
   </energy>
  </scstep>
  <scstep>
   <time name="diag">    1.23    1.23</time>
   <time name="diis">    1.98    1.98</time>
   <time name="orth">    0.09    0.09</time>
   <time name="total">    3.64    3.66</time>
   <energy>
    <i name="e_fr_energy">    -91.94386149 </i>
    <i name="e_wo_entrp">    -91.94386149 </i>
    <i name="e_0_energy">    -91.94386149 </i>
   </energy>
  </scstep>
  <scstep>
   <time name="diag">    1.23    1.23</time>
   <time name="diis">    2.05    2.05</time>
   <time name="orth">    0.09    0.09</time>
   <time name="total">    3.72    3.74</time>
   <energy>
    <i name="e_fr_energy">    -91.94391439 </i>
    <i name="e_wo_entrp">    -91.94391439 </i>
    <i name="e_0_energy">    -91.94391439 </i>
   </energy>
  </scstep>
  <scstep>
   <time name="diag">    1.23    1.23</time>
   <time name="diis">    2.09    2.09</time>
   <time name="orth">    0.09    0.09</time>
   <time name="total">    3.76    3.77</time>
   <energy>
    <i name="e_fr_energy">    -91.94391636 </i>
    <i name="e_wo_entrp">    -91.94391636 </i>
    <i name="e_0_energy">    -91.94391636 </i>
   </energy>
  </scstep>
  <scstep>
   <time name="diag">    1.23    1.23</time>
   <time name="diis">    2.16    2.16</time>
   <time name="orth">    0.09    0.09</time>
   <time name="total">    3.83    3.85</time>
   <energy>
    <i name="e_fr_energy">    -91.94391847 </i>
    <i name="e_wo_entrp">    -91.94391847 </i>
    <i name="e_0_energy">    -91.94391847 </i>
   </energy>
  </scstep>
  <scstep>
   <time name="diag">    1.23    1.23</time>
   <time name="diis">    2.21    2.21</time>
   <time name="orth">    0.09    0.09</time>
   <time name="total">    3.88    3.89</time>
   <energy>
    <i name="e_fr_energy">    -91.94391904 </i>
    <i name="e_wo_entrp">    -91.94391904 </i>
    <i name="e_0_energy">    -91.94391904 </i>
   </energy>
  </scstep>
  <scstep>
   <time name="diag">    1.27    1.27</time>
   <time name="diis">    2.10    2.10</time>
   <time name="orth">    0.09    0.09</time>
   <time name="total">    3.82    3.83</time>
   <energy>
    <i name="e_fr_energy">    -91.94391913 </i>
    <i name="e_wo_entrp">    -91.94391913 </i>
    <i name="e_0_energy">    -91.94391913 </i>
   </energy>
  </scstep>
  <scstep>
   <time name="diag">    1.24    1.24</time>
   <time name="diis">    1.97    1.97</time>
   <time name="orth">    0.09    0.09</time>
   <time name="total">    3.65    3.67</time>
   <energy>
    <i name="e_fr_energy">    -91.94391915 </i>
    <i name="e_wo_entrp">    -91.94391915 </i>
    <i name="e_0_energy">    -91.94391915 </i>
   </energy>
  </scstep>
  <scstep>
   <time name="diag">    1.23    1.23</time>
   <time name="diis">    1.74    1.74</time>
   <time name="orth">    0.09    0.09</time>
   <time name="total">    3.17    3.19</time>
   <energy>
    <i name="alphaZ">     26.71045930 </i>
    <i name="ewald">  -1823.90596843 </i>
    <i name="hartreedc">   -117.53352097 </i>
    <i name="XCdc">   -135.04614778 </i>
    <i name="pawpsdc">   6843.30695125 </i>
    <i name="pawaedc">  -6568.36745966 </i>
    <i name="eentropy">     -0.00000000 </i>
    <i name="bandstr">     41.67978872 </i>
    <i name="atom">   1641.21197842 </i>
    <i name="e_fr_energy">    -91.94391915 </i>
    <i name="e_wo_entrp">    -91.94391915 </i>
    <i name="e_0_energy">    -91.94391915 </i>
   </energy>
  </scstep>
  <structure>
   <crystal>
    <varray name="basis" >
     <v>       0.00000000       5.44370237       5.44370237 </v>
     <v>       5.44370237       0.00000000       5.44370237 </v>
     <v>       5.44370237       5.44370237       0.00000000 </v>
    </varray>
    <i name="volume">    322.63621478 </i>
    <varray name="rec_basis" >
     <v>      -0.09184925       0.09184925       0.09184925 </v>
     <v>       0.09184925      -0.09184925       0.09184925 </v>
     <v>       0.09184925       0.09184925      -0.09184925 </v>
    </varray>
   </crystal>
   <varray name="positions" >
    <v>       0.12506874       0.12549799       0.12540002 </v>
    <v>       0.62480979       0.12512797       0.12557001 </v>
    <v>       0.12485266       0.62530137       0.12537503 </v>
    <v>       0.62502385       0.62475035       0.12537915 </v>
    <v>       0.12505699       0.12508264       0.62572874 </v>
    <v>       0.62505700       0.12481043       0.62563902 </v>
    <v>       0.12492668       0.62527579       0.62521428 </v>
    <v>       0.62512908       0.62509242       0.62527575 </v>
    <v>       0.99991620       0.00039850       0.00079915 </v>
    <v>       0.50022096       0.99964678       0.00055182 </v>
    <v>       0.00010362       0.50029784       0.00009627 </v>
    <v>       0.49997709       0.50009653       0.00013921 </v>
    <v>       0.00016354       0.00045010       0.50039547 </v>
    <v>       0.49999227       0.00010159       0.50066524 </v>
    <v>       0.00000344       0.50017563       0.50046472 </v>
    <v>       0.50024187       0.49995545       0.50037002 </v>
   </varray>
  </structure>
  <varray name="forces" >
   <v>      -0.00980117       0.01498407      -0.00092532 </v>
   <v>      -0.00653648       0.00631663       0.00083370 </v>
   <v>       0.00115999       0.00373114       0.00567969 </v>
   <v>      -0.00080609       0.00782410       0.00474417 </v>
   <v>       0.01210797      -0.00001862       0.00265803 </v>
   <v>       0.00819702       0.00366954       0.02264577 </v>
   <v>      -0.00061211       0.01130076       0.02712326 </v>
   <v>       0.00233095      -0.00491841       0.00055044 </v>
   <v>      -0.01100081      -0.00972360      -0.01153936 </v>
   <v>       0.01607252      -0.00508995       0.00151473 </v>
   <v>       0.01427044      -0.00322859      -0.00041126 </v>
   <v>       0.01019462       0.00113227      -0.01131144 </v>
   <v>      -0.00826611      -0.00237500      -0.01901683 </v>
   <v>      -0.01375145      -0.01046320      -0.00170131 </v>
   <v>      -0.01677998      -0.00288763      -0.00115239 </v>
   <v>       0.00322068      -0.01025350      -0.01969189 </v>
  </varray>
  <varray name="stress" >
   <v>      -4.06127176       0.22966761       0.15503982 </v>
   <v>       0.22966770      -4.06048028       0.02190529 </v>
   <v>       0.15503986       0.02190531      -4.06072020 </v>
  </varray>
  <energy>
   <i name="e_fr_energy">    -91.94391915 </i>
   <i name="e_wo_entrp">    -91.94391915 </i>
   <i name="e_0_energy">    -91.94391915 </i>
  </energy>
  <time name="totalsc">   38.14   39.23</time>
 </calculation>
 <calculation>
  <scstep>
   <time name="dav">    4.39    4.39</time>
   <time name="total">    4.73    4.73</time>
   <energy>
    <i name="alphaZ">     26.71045930 </i>
    <i name="ewald">  -1823.90591337 </i>
    <i name="hartreedc">   -117.53358837 </i>
    <i name="XCdc">   -135.04614718 </i>
    <i name="pawpsdc">   6843.30631413 </i>
    <i name="pawaedc">  -6568.36682241 </i>
    <i name="eentropy">     -0.00000000 </i>
    <i name="bandstr">     41.67979262 </i>
    <i name="atom">   1641.21197842 </i>
    <i name="e_fr_energy">    -91.94392685 </i>
    <i name="e_wo_entrp">    -91.94392685 </i>
    <i name="e_0_energy">    -91.94392685 </i>
   </energy>
  </scstep>
  <scstep>
   <time name="diag">    1.23    1.23</time>
   <time name="diis">    2.03    2.03</time>
   <time name="orth">    0.09    0.09</time>
   <time name="total">    3.71    3.72</time>
   <energy>
    <i name="e_fr_energy">    -91.94392813 </i>
    <i name="e_wo_entrp">    -91.94392813 </i>
    <i name="e_0_energy">    -91.94392813 </i>
   </energy>
  </scstep>
  <scstep>
   <time name="diag">    1.23    1.23</time>
   <time name="diis">    1.98    1.98</time>
   <time name="orth">    0.09    0.09</time>
   <time name="total">    3.64    3.66</time>
   <energy>
    <i name="e_fr_energy">    -91.94392825 </i>
    <i name="e_wo_entrp">    -91.94392825 </i>
    <i name="e_0_energy">    -91.94392825 </i>
   </energy>
  </scstep>
  <scstep>
   <time name="diag">    1.23    1.23</time>
   <time name="diis">    2.02    2.02</time>
   <time name="orth">    0.09    0.09</time>
   <time name="total">    3.69    3.71</time>
   <energy>
    <i name="e_fr_energy">    -91.94392826 </i>
    <i name="e_wo_entrp">    -91.94392826 </i>
    <i name="e_0_energy">    -91.94392826 </i>
   </energy>
  </scstep>
  <scstep>
   <time name="diag">    1.23    1.23</time>
   <time name="diis">    1.92    1.92</time>
   <time name="orth">    0.09    0.09</time>
   <time name="total">    3.36    3.38</time>
   <energy>
    <i name="alphaZ">     26.71045930 </i>
    <i name="ewald">  -1823.90591337 </i>
    <i name="hartreedc">   -117.53359202 </i>
    <i name="XCdc">   -135.04614770 </i>
    <i name="pawpsdc">   6843.30168957 </i>
    <i name="pawaedc">  -6568.36219734 </i>
    <i name="eentropy">     -0.00000000 </i>
    <i name="bandstr">     41.67979488 </i>
    <i name="atom">   1641.21197842 </i>
    <i name="e_fr_energy">    -91.94392826 </i>
    <i name="e_wo_entrp">    -91.94392826 </i>
    <i name="e_0_energy">    -91.94392826 </i>
   </energy>
  </scstep>
  <structure>
   <crystal>
    <varray name="basis" >
     <v>       0.00000000       5.44370237       5.44370237 </v>
     <v>       5.44370237       0.00000000       5.44370237 </v>
     <v>       5.44370237       5.44370237       0.00000000 </v>
    </varray>
    <i name="volume">    322.63621478 </i>
    <varray name="rec_basis" >
     <v>      -0.09184925       0.09184925       0.09184925 </v>
     <v>       0.09184925      -0.09184925       0.09184925 </v>
     <v>       0.09184925       0.09184925      -0.09184925 </v>
    </varray>
   </crystal>
   <varray name="positions" >
    <v>       0.12509516       0.12549511       0.12539469 </v>
    <v>       0.62481542       0.12511673       0.12558924 </v>
    <v>       0.12484730       0.62528409       0.12538347 </v>
    <v>       0.62505701       0.62473453       0.12533247 </v>
    <v>       0.12504615       0.12512184       0.62573622 </v>
    <v>       0.62506279       0.12480701       0.62563336 </v>
    <v>       0.12494055       0.62528242       0.62521799 </v>
    <v>       0.62514198       0.62511835       0.62528485 </v>
    <v>       0.99991301       0.00042346       0.00078175 </v>
    <v>       0.50018392       0.99965293       0.00055643 </v>
    <v>       0.00007528       0.50030205       0.00010875 </v>
    <v>       0.50000105       0.50012473       0.00011494 </v>
    <v>       0.00015157       0.00044828       0.50038402 </v>
    <v>       0.50001100       0.00007026       0.50067085 </v>
    <v>      -0.00001793       0.50014019       0.50048001 </v>
    <v>       0.50021951       0.49993938       0.50039483 </v>
   </varray>
  </structure>
  <varray name="forces" >
   <v>      -0.00841487       0.01185764      -0.00353562 </v>
   <v>      -0.00712060       0.00315586       0.00143006 </v>
   <v>       0.00211446       0.00317715       0.00797879 </v>
   <v>       0.00632668       0.00900354       0.00250041 </v>
   <v>       0.00620933       0.00029027      -0.00069916 </v>
   <v>       0.00881509       0.00346873       0.02123935 </v>
   <v>      -0.00180343       0.00871224       0.02341279 </v>
   <v>      -0.00177880      -0.00721461      -0.00390846 </v>
   <v>      -0.01132130      -0.00688447      -0.01344440 </v>
   <v>       0.01408440      -0.00116510       0.00493524 </v>
   <v>       0.01168115      -0.00129112       0.00233885 </v>
   <v>       0.00924528       0.00114053      -0.01665084 </v>
   <v>      -0.00631207       0.00043848      -0.01646935 </v>
   <v>      -0.01015128      -0.01267859      -0.00019623 </v>
   <v>      -0.01364320      -0.00197148       0.00536392 </v>
   <v>       0.00206917      -0.01003907      -0.01429535 </v>
  </varray>
  <varray name="stress" >
   <v>      -4.06135517       0.17577004       0.11724129 </v>
   <v>       0.17577007      -4.06048654       0.01581125 </v>
   <v>       0.11724130       0.01581122      -4.06083345 </v>
  </varray>
  <energy>
   <i name="e_fr_energy">    -91.94392826 </i>
   <i name="e_wo_entrp">    -91.94392826 </i>
   <i name="e_0_energy">    -91.94392826 </i>
  </energy>
  <time name="totalsc">   23.35   24.00</time>
 </calculation>
 <calculation>
  <scstep>
   <time name="dav">    4.15    4.15</time>
   <time name="total">    4.48    4.49</time>
   <energy>
    <i name="alphaZ">     26.71045930 </i>
    <i name="ewald">  -1823.90630905 </i>
    <i name="hartreedc">   -117.53332319 </i>
    <i name="XCdc">   -135.04614664 </i>
    <i name="pawpsdc">   6843.30319848 </i>
    <i name="pawaedc">  -6568.36370624 </i>
    <i name="eentropy">     -0.00000000 </i>
    <i name="bandstr">     41.67983091 </i>
    <i name="atom">   1641.21197842 </i>
    <i name="e_fr_energy">    -91.94401801 </i>
    <i name="e_wo_entrp">    -91.94401801 </i>
    <i name="e_0_energy">    -91.94401801 </i>
   </energy>
  </scstep>
  <scstep>
   <time name="diag">    1.23    1.23</time>
   <time name="diis">    1.97    1.98</time>
   <time name="orth">    0.09    0.09</time>
   <time name="total">    3.65    3.66</time>
   <energy>
    <i name="e_fr_energy">    -91.94402996 </i>
    <i name="e_wo_entrp">    -91.94402996 </i>
    <i name="e_0_energy">    -91.94402996 </i>
   </energy>
  </scstep>
  <scstep>
   <time name="diag">    1.23    1.23</time>
   <time name="diis">    1.98    1.98</time>
   <time name="orth">    0.10    0.10</time>
   <time name="total">    3.65    3.66</time>
   <energy>
    <i name="e_fr_energy">    -91.94403150 </i>
    <i name="e_wo_entrp">    -91.94403150 </i>
    <i name="e_0_energy">    -91.94403150 </i>
   </energy>
  </scstep>
  <scstep>
   <time name="diag">    1.23    1.23</time>
   <time name="diis">    2.09    2.09</time>
   <time name="orth">    0.09    0.09</time>
   <time name="total">    3.76    3.78</time>
   <energy>
    <i name="e_fr_energy">    -91.94403168 </i>
    <i name="e_wo_entrp">    -91.94403168 </i>
    <i name="e_0_energy">    -91.94403168 </i>
   </energy>
  </scstep>
  <scstep>
   <time name="diag">    1.23    1.23</time>
   <time name="diis">    2.13    2.13</time>
   <time name="orth">    0.09    0.09</time>
   <time name="total">    3.80    3.81</time>
   <energy>
    <i name="e_fr_energy">    -91.94403173 </i>
    <i name="e_wo_entrp">    -91.94403173 </i>
    <i name="e_0_energy">    -91.94403173 </i>
   </energy>
  </scstep>
  <scstep>
   <time name="diag">    1.24    1.24</time>
   <time name="diis">    2.22    2.22</time>
   <time name="orth">    0.09    0.09</time>
   <time name="total">    3.90    3.91</time>
   <energy>
    <i name="e_fr_energy">    -91.94403175 </i>
    <i name="e_wo_entrp">    -91.94403175 </i>
    <i name="e_0_energy">    -91.94403175 </i>
   </energy>
  </scstep>
  <scstep>
   <time name="diag">    1.23    1.23</time>
   <time name="diis">    1.63    1.63</time>
   <time name="orth">    0.09    0.09</time>
   <time name="total">    3.07    3.08</time>
   <energy>
    <i name="alphaZ">     26.71045930 </i>
    <i name="ewald">  -1823.90630905 </i>
    <i name="hartreedc">   -117.53335020 </i>
    <i name="XCdc">   -135.04614540 </i>
    <i name="pawpsdc">   6843.30351410 </i>
    <i name="pawaedc">  -6568.36401992 </i>
    <i name="eentropy">     -0.00000000 </i>
    <i name="bandstr">     41.67984100 </i>
    <i name="atom">   1641.21197842 </i>
    <i name="e_fr_energy">    -91.94403175 </i>
    <i name="e_wo_entrp">    -91.94403175 </i>
    <i name="e_0_energy">    -91.94403175 </i>
   </energy>
  </scstep>
  <structure>
   <crystal>
    <varray name="basis" >
     <v>       0.00000000       5.44370237       5.44370237 </v>
     <v>       5.44370237       0.00000000       5.44370237 </v>
     <v>       5.44370237       5.44370237       0.00000000 </v>
    </varray>
    <i name="volume">    322.63621478 </i>
    <varray name="rec_basis" >
     <v>      -0.09184925       0.09184925       0.09184925 </v>
     <v>       0.09184925      -0.09184925       0.09184925 </v>
     <v>       0.09184925       0.09184925      -0.09184925 </v>
    </varray>
   </crystal>
   <varray name="positions" >
    <v>       0.12515438       0.12539222       0.12542816 </v>
    <v>       0.62486375       0.12508397       0.12555524 </v>
    <v>       0.12488984       0.62532372       0.12536715 </v>
    <v>       0.62506190       0.62474226       0.12541384 </v>
    <v>       0.12502294       0.12512367       0.62576378 </v>
    <v>       0.62512939       0.12492547       0.62559712 </v>
    <v>       0.12508192       0.62533543       0.62514360 </v>
    <v>       0.62509405       0.62511111       0.62525765 </v>
    <v>       0.99987521       0.00033160       0.00077022 </v>
    <v>       0.50015859       0.99973817       0.00058898 </v>
    <v>       0.00004387       0.50036695       0.00013736 </v>
    <v>       0.49987958       0.50007208       0.00024658 </v>
    <v>       0.00011537       0.00034740       0.50043665 </v>
    <v>       0.49998898       0.00009733       0.50056855 </v>
    <v>       0.00006828       0.50013157       0.50037977 </v>
    <v>       0.50011571       0.49993842       0.50040924 </v>
   </varray>
  </structure>
  <varray name="forces" >
   <v>      -0.00236561       0.00034527      -0.00427260 </v>
   <v>      -0.00154379       0.00138059       0.00043631 </v>
   <v>      -0.00089598      -0.00007379      -0.00147369 </v>
   <v>       0.00239932      -0.00167684       0.00192351 </v>
   <v>      -0.00036802      -0.00388656      -0.00083626 </v>
   <v>       0.00098129      -0.00234240       0.00130721 </v>
   <v>       0.00044850       0.00315029       0.00042965 </v>
   <v>       0.00104256       0.00007801      -0.00231830 </v>
   <v>      -0.00406827      -0.00168507      -0.00052792 </v>
   <v>       0.00329433      -0.00161190       0.00255838 </v>
   <v>       0.00173678       0.00317580       0.00022523 </v>
   <v>       0.00286290       0.00382033       0.00173984 </v>
   <v>      -0.00211058       0.00093833      -0.00159165 </v>
   <v>      -0.00166476      -0.00011253       0.00212278 </v>
   <v>      -0.00103819      -0.00004310       0.00115332 </v>
   <v>       0.00128951      -0.00145643      -0.00087581 </v>
  </varray>
  <varray name="stress" >
   <v>      -4.06164969      -0.01732063      -0.01115166 </v>
   <v>      -0.01732067      -4.06150136      -0.00108871 </v>
   <v>      -0.01115162      -0.00108861      -4.06142418 </v>
  </varray>
  <energy>
   <i name="e_fr_energy">    -91.94403175 </i>
   <i name="e_wo_entrp">    -91.94403175 </i>
   <i name="e_0_energy">    -91.94403175 </i>
  </energy>
  <time name="totalsc">   30.51   30.71</time>
 </calculation>
 <calculation>
  <scstep>
   <time name="dav">    4.48    4.48</time>
   <time name="total">    4.84    4.84</time>
   <energy>
    <i name="alphaZ">     26.71045930 </i>
    <i name="ewald">  -1823.90630393 </i>
    <i name="hartreedc">   -117.53335228 </i>
    <i name="XCdc">   -135.04614512 </i>
    <i name="pawpsdc">   6843.30102420 </i>
    <i name="pawaedc">  -6568.36152986 </i>
    <i name="eentropy">     -0.00000000 </i>
    <i name="bandstr">     41.67983673 </i>
    <i name="atom">   1641.21197842 </i>
    <i name="e_fr_energy">    -91.94403253 </i>
    <i name="e_wo_entrp">    -91.94403253 </i>
    <i name="e_0_energy">    -91.94403253 </i>
   </energy>
  </scstep>
  <scstep>
   <time name="diag">    1.24    1.24</time>
   <time name="diis">    1.98    1.98</time>
   <time name="orth">    0.09    0.09</time>
   <time name="total">    3.65    3.67</time>
   <energy>
    <i name="e_fr_energy">    -91.94403265 </i>
    <i name="e_wo_entrp">    -91.94403265 </i>
    <i name="e_0_energy">    -91.94403265 </i>
   </energy>
  </scstep>
  <scstep>
   <time name="diag">    1.23    1.23</time>
   <time name="diis">    1.98    1.98</time>
   <time name="orth">    0.09    0.09</time>
   <time name="total">    3.65    3.66</time>
   <energy>
    <i name="e_fr_energy">    -91.94403267 </i>
    <i name="e_wo_entrp">    -91.94403267 </i>
    <i name="e_0_energy">    -91.94403267 </i>
   </energy>
  </scstep>
  <scstep>
   <time name="diag">    1.23    1.23</time>
   <time name="diis">    1.85    1.85</time>
   <time name="orth">    0.09    0.09</time>
   <time name="total">    3.53    3.54</time>
   <energy>
    <i name="e_fr_energy">    -91.94403267 </i>
    <i name="e_wo_entrp">    -91.94403267 </i>
    <i name="e_0_energy">    -91.94403267 </i>
   </energy>
  </scstep>
  <scstep>
   <time name="diag">    1.23    1.23</time>
   <time name="diis">    1.37    1.37</time>
   <time name="orth">    0.09    0.09</time>
   <time name="total">    2.80    2.82</time>
   <energy>
    <i name="alphaZ">     26.71045930 </i>
    <i name="ewald">  -1823.90630393 </i>
    <i name="hartreedc">   -117.53335553 </i>
    <i name="XCdc">   -135.04614454 </i>
    <i name="pawpsdc">   6843.30330894 </i>
    <i name="pawaedc">  -6568.36381476 </i>
    <i name="eentropy">     -0.00000000 </i>
    <i name="bandstr">     41.67983942 </i>
    <i name="atom">   1641.21197842 </i>
    <i name="e_fr_energy">    -91.94403267 </i>
    <i name="e_wo_entrp">    -91.94403267 </i>
    <i name="e_0_energy">    -91.94403267 </i>
   </energy>
  </scstep>
  <structure>
   <crystal>
    <varray name="basis" >
     <v>       0.00000000       5.44370237       5.44370237 </v>
     <v>       5.44370237       0.00000000       5.44370237 </v>
     <v>       5.44370237       5.44370237       0.00000000 </v>
    </varray>
    <i name="volume">    322.63621478 </i>
    <varray name="rec_basis" >
     <v>      -0.09184925       0.09184925       0.09184925 </v>
     <v>       0.09184925      -0.09184925       0.09184925 </v>
     <v>       0.09184925       0.09184925      -0.09184925 </v>
    </varray>
   </crystal>
   <varray name="positions" >
    <v>       0.12516044       0.12538169       0.12543159 </v>
    <v>       0.62486869       0.12508061       0.12555176 </v>
    <v>       0.12489420       0.62532777       0.12536548 </v>
    <v>       0.62506240       0.62474305       0.12542217 </v>
    <v>       0.12502057       0.12512385       0.62576660 </v>
    <v>       0.62513621       0.12493759       0.62559341 </v>
    <v>       0.12509639       0.62534085       0.62513599 </v>
    <v>       0.62508915       0.62511037       0.62525487 </v>
    <v>       0.99987134       0.00032221       0.00076904 </v>
    <v>       0.50015600       0.99974689       0.00059231 </v>
    <v>       0.00004066       0.50037359       0.00014029 </v>
    <v>       0.49986715       0.50006670       0.00026005 </v>
    <v>       0.00011167       0.00033708       0.50044204 </v>
    <v>       0.49998673       0.00010010       0.50055808 </v>
    <v>       0.00007711       0.50013069       0.50036951 </v>
    <v>       0.50010509       0.49993833       0.50041071 </v>
   </varray>
  </structure>
  <varray name="forces" >
   <v>      -0.00175366      -0.00082806      -0.00435472 </v>
   <v>      -0.00098042       0.00119888       0.00034003 </v>
   <v>      -0.00119981      -0.00040699      -0.00243305 </v>
   <v>       0.00200428      -0.00276208       0.00186333 </v>
   <v>      -0.00103479      -0.00431173      -0.00085582 </v>
   <v>       0.00018960      -0.00293158      -0.00071548 </v>
   <v>       0.00067904       0.00258347      -0.00191095 </v>
   <v>       0.00132680       0.00081774      -0.00216235 </v>
   <v>      -0.00333314      -0.00115704       0.00078310 </v>
   <v>       0.00219681      -0.00165636       0.00232299 </v>
   <v>       0.00072599       0.00363010       0.00001473 </v>
   <v>       0.00221522       0.00409936       0.00360557 </v>
   <v>      -0.00168362       0.00098973      -0.00008244 </v>
   <v>      -0.00080158       0.00116156       0.00236279 </v>
   <v>       0.00024331       0.00015677       0.00073290 </v>
   <v>       0.00120595      -0.00058377       0.00048936 </v>
  </varray>
  <varray name="stress" >
   <v>      -4.06158892      -0.03702029      -0.02424727 </v>
   <v>      -0.03702032      -4.06150409      -0.00279737 </v>
   <v>      -0.02424718      -0.00279732      -4.06144058 </v>
  </varray>
  <energy>
   <i name="e_fr_energy">    -91.94403267 </i>
   <i name="e_wo_entrp">    -91.94403267 </i>
   <i name="e_0_energy">    -91.94403267 </i>
  </energy>
  <time name="totalsc">   22.70   22.81</time>
 </calculation>
 <calculation>
  <scstep>
   <time name="dav">    3.95    3.95</time>
   <time name="total">    4.29    4.29</time>
   <energy>
    <i name="alphaZ">     26.71045930 </i>
    <i name="ewald">  -1823.90623515 </i>
    <i name="hartreedc">   -117.53339309 </i>
    <i name="XCdc">   -135.04614176 </i>
    <i name="pawpsdc">   6843.30190644 </i>
    <i name="pawaedc">  -6568.36241224 </i>
    <i name="eentropy">     -0.00000000 </i>
    <i name="bandstr">     41.67979862 </i>
    <i name="atom">   1641.21197842 </i>
    <i name="e_fr_energy">    -91.94403946 </i>
    <i name="e_wo_entrp">    -91.94403946 </i>
    <i name="e_0_energy">    -91.94403946 </i>
   </energy>
  </scstep>
  <scstep>
   <time name="diag">    1.23    1.23</time>
   <time name="diis">    1.97    1.98</time>
   <time name="orth">    0.09    0.09</time>
   <time name="total">    3.64    3.66</time>
   <energy>
    <i name="e_fr_energy">    -91.94403975 </i>
    <i name="e_wo_entrp">    -91.94403975 </i>
    <i name="e_0_energy">    -91.94403975 </i>
   </energy>
  </scstep>
  <scstep>
   <time name="diag">    1.23    1.23</time>
   <time name="diis">    2.00    2.00</time>
   <time name="orth">    0.09    0.09</time>
   <time name="total">    3.67    3.68</time>
   <energy>
    <i name="e_fr_energy">    -91.94403978 </i>
    <i name="e_wo_entrp">    -91.94403978 </i>
    <i name="e_0_energy">    -91.94403978 </i>
   </energy>
  </scstep>
  <scstep>
   <time name="diag">    1.23    1.23</time>
   <time name="diis">    2.04    2.04</time>
   <time name="orth">    0.09    0.09</time>
   <time name="total">    3.71    3.72</time>
   <energy>
    <i name="e_fr_energy">    -91.94403978 </i>
    <i name="e_wo_entrp">    -91.94403978 </i>
    <i name="e_0_energy">    -91.94403978 </i>
   </energy>
  </scstep>
  <scstep>
   <time name="diag">    1.23    1.23</time>
   <time name="diis">    1.45    1.45</time>
   <time name="orth">    0.09    0.09</time>
   <time name="total">    2.88    2.90</time>
   <energy>
    <i name="alphaZ">     26.71045930 </i>
    <i name="ewald">  -1823.90623515 </i>
    <i name="hartreedc">   -117.53340884 </i>
    <i name="XCdc">   -135.04613968 </i>
    <i name="pawpsdc">   6843.30441692 </i>
    <i name="pawaedc">  -6568.36492411 </i>
    <i name="eentropy">     -0.00000000 </i>
    <i name="bandstr">     41.67981336 </i>
    <i name="atom">   1641.21197842 </i>
    <i name="e_fr_energy">    -91.94403979 </i>
    <i name="e_wo_entrp">    -91.94403979 </i>
    <i name="e_0_energy">    -91.94403979 </i>
   </energy>
  </scstep>
  <structure>
   <crystal>
    <varray name="basis" >
     <v>       0.00000000       5.44370237       5.44370237 </v>
     <v>       5.44370237       0.00000000       5.44370237 </v>
     <v>       5.44370237       5.44370237       0.00000000 </v>
    </varray>
    <i name="volume">    322.63621478 </i>
    <varray name="rec_basis" >
     <v>      -0.09184925       0.09184925       0.09184925 </v>
     <v>       0.09184925      -0.09184925       0.09184925 </v>
     <v>       0.09184925       0.09184925      -0.09184925 </v>
    </varray>
   </crystal>
   <varray name="positions" >
    <v>       0.12514786       0.12535324       0.12544109 </v>
    <v>       0.62488223       0.12507085       0.12554963 </v>
    <v>       0.12488884       0.62531519       0.12536841 </v>
    <v>       0.62504963       0.62477309       0.12541424 </v>
    <v>       0.12500098       0.12513478       0.62574779 </v>
    <v>       0.62512215       0.12495390       0.62558264 </v>
    <v>       0.12510297       0.62532625       0.62515567 </v>
    <v>       0.62507495       0.62510263       0.62527288 </v>
    <v>       0.99988282       0.00031167       0.00074489 </v>
    <v>       0.50014796       0.99977852       0.00058585 </v>
    <v>       0.00005225       0.50036369       0.00016106 </v>
    <v>       0.49988604       0.50007194       0.00027834 </v>
    <v>       0.00012157       0.00032003       0.50044176 </v>
    <v>       0.50000507       0.00010315       0.50054433 </v>
    <v>       0.00008403       0.50013395       0.50036333 </v>
    <v>       0.50009442       0.49994848       0.50041198 </v>
   </varray>
  </structure>
  <varray name="forces" >
   <v>      -0.00113988      -0.00102764      -0.00251066 </v>
   <v>      -0.00005630       0.00091143       0.00162175 </v>
   <v>      -0.00095471       0.00132918      -0.00009724 </v>
   <v>       0.00246945      -0.00062713       0.00327634 </v>
   <v>      -0.00208593      -0.00218849       0.00118988 </v>
   <v>      -0.00023681      -0.00132569       0.00012495 </v>
   <v>       0.00081404       0.00186456      -0.00253899 </v>
   <v>       0.00120926       0.00138378      -0.00051368 </v>
   <v>      -0.00326500      -0.00121890       0.00013647 </v>
   <v>       0.00134983      -0.00234644       0.00135282 </v>
   <v>      -0.00034129       0.00198361      -0.00247290 </v>
   <v>       0.00115471       0.00231467       0.00137028 </v>
   <v>      -0.00098720      -0.00029254      -0.00155518 </v>
   <v>      -0.00009364       0.00018060      -0.00030834 </v>
   <v>       0.00161257      -0.00039073      -0.00031289 </v>
   <v>       0.00055090      -0.00055026       0.00123738 </v>
  </varray>
  <varray name="stress" >
   <v>      -4.06144432       0.00214593       0.00107972 </v>
   <v>       0.00214593      -4.06133228       0.00006692 </v>
   <v>       0.00107973       0.00006693      -4.06135602 </v>
  </varray>
  <energy>
   <i name="e_fr_energy">    -91.94403979 </i>
   <i name="e_wo_entrp">    -91.94403979 </i>
   <i name="e_0_energy">    -91.94403979 </i>
  </energy>
  <time name="totalsc">   22.40   22.78</time>
 </calculation>
 <calculation>
  <scstep>
   <time name="dav">    3.93    3.93</time>
   <time name="total">    4.26    4.27</time>
   <energy>
    <i name="alphaZ">     26.71045930 </i>
    <i name="ewald">  -1823.90613350 </i>
    <i name="hartreedc">   -117.53346180 </i>
    <i name="XCdc">   -135.04613615 </i>
    <i name="pawpsdc">   6843.30385614 </i>
    <i name="pawaedc">  -6568.36436330 </i>
    <i name="eentropy">     -0.00000000 </i>
    <i name="bandstr">     41.67975803 </i>
    <i name="atom">   1641.21197842 </i>
    <i name="e_fr_energy">    -91.94404286 </i>
    <i name="e_wo_entrp">    -91.94404286 </i>
    <i name="e_0_energy">    -91.94404286 </i>
   </energy>
  </scstep>
  <scstep>
   <time name="diag">    1.23    1.23</time>
   <time name="diis">    1.98    1.98</time>
   <time name="orth">    0.09    0.09</time>
   <time name="total">    3.65    3.66</time>
   <energy>
    <i name="e_fr_energy">    -91.94404342 </i>
    <i name="e_wo_entrp">    -91.94404342 </i>
    <i name="e_0_energy">    -91.94404342 </i>
   </energy>
  </scstep>
  <scstep>
   <time name="diag">    1.25    1.25</time>
   <time name="diis">    1.99    1.99</time>
   <time name="orth">    0.09    0.09</time>
   <time name="total">    3.68    3.69</time>
   <energy>
    <i name="e_fr_energy">    -91.94404348 </i>
    <i name="e_wo_entrp">    -91.94404348 </i>
    <i name="e_0_energy">    -91.94404348 </i>
   </energy>
  </scstep>
  <scstep>
   <time name="diag">    1.26    1.26</time>
   <time name="diis">    2.04    2.04</time>
   <time name="orth">    0.09    0.09</time>
   <time name="total">    3.75    3.76</time>
   <energy>
    <i name="e_fr_energy">    -91.94404348 </i>
    <i name="e_wo_entrp">    -91.94404348 </i>
    <i name="e_0_energy">    -91.94404348 </i>
   </energy>
  </scstep>
  <scstep>
   <time name="diag">    1.23    1.23</time>
   <time name="diis">    1.70    1.71</time>
   <time name="orth">    0.09    0.09</time>
   <time name="total">    3.14    3.15</time>
   <energy>
    <i name="alphaZ">     26.71045930 </i>
    <i name="ewald">  -1823.90613350 </i>
    <i name="hartreedc">   -117.53348115 </i>
    <i name="XCdc">   -135.04613340 </i>
    <i name="pawpsdc">   6843.30913526 </i>
    <i name="pawaedc">  -6568.36964442 </i>
    <i name="eentropy">     -0.00000000 </i>
    <i name="bandstr">     41.67977600 </i>
    <i name="atom">   1641.21197842 </i>
    <i name="e_fr_energy">    -91.94404349 </i>
    <i name="e_wo_entrp">    -91.94404349 </i>
    <i name="e_0_energy">    -91.94404349 </i>
   </energy>
  </scstep>
  <structure>
   <crystal>
    <varray name="basis" >
     <v>       0.00000000       5.44370237       5.44370237 </v>
     <v>       5.44370237       0.00000000       5.44370237 </v>
     <v>       5.44370237       5.44370237       0.00000000 </v>
    </varray>
    <i name="volume">    322.63621478 </i>
    <varray name="rec_basis" >
     <v>      -0.09184925       0.09184925       0.09184925 </v>
     <v>       0.09184925      -0.09184925       0.09184925 </v>
     <v>       0.09184925       0.09184925      -0.09184925 </v>
    </varray>
   </crystal>
   <varray name="positions" >
    <v>       0.12513045       0.12531388       0.12545424 </v>
    <v>       0.62490096       0.12505734       0.12554668 </v>
    <v>       0.12488144       0.62529777       0.12537247 </v>
    <v>       0.62503197       0.62481465       0.12540327 </v>
    <v>       0.12497388       0.12514989       0.62572175 </v>
    <v>       0.62510269       0.12497646       0.62556775 </v>
    <v>       0.12511208       0.62530605       0.62518290 </v>
    <v>       0.62505530       0.62509192       0.62529779 </v>
    <v>       0.99989870       0.00029710       0.00071148 </v>
    <v>       0.50013684       0.99982229       0.00057692 </v>
    <v>       0.00006830       0.50035000       0.00018980 </v>
    <v>       0.49991219       0.50007920       0.00030363 </v>
    <v>       0.00013528       0.00029643       0.50044138 </v>
    <v>       0.50003043       0.00010738       0.50052531 </v>
    <v>       0.00009361       0.50013847       0.50035479 </v>
    <v>       0.50007964       0.49996254       0.50041374 </v>
   </varray>
  </structure>
  <varray name="forces" >
   <v>      -0.00029479      -0.00131207       0.00002088 </v>
   <v>       0.00122035       0.00051389       0.00338690 </v>
   <v>      -0.00062173       0.00372554       0.00311212 </v>
   <v>       0.00311865       0.00230669       0.00523454 </v>
   <v>      -0.00354652       0.00072371       0.00400935 </v>
   <v>      -0.00082854       0.00087675       0.00126970 </v>
   <v>       0.00100612       0.00087492      -0.00342793 </v>
   <v>       0.00105597       0.00216892       0.00175639 </v>
   <v>      -0.00318049      -0.00130218      -0.00074206 </v>
   <v>       0.00018472      -0.00330414       0.00001960 </v>
   <v>      -0.00181873      -0.00027383      -0.00591155 </v>
   <v>      -0.00030733      -0.00013606      -0.00169124 </v>
   <v>      -0.00003201      -0.00205928      -0.00357710 </v>
   <v>       0.00088208      -0.00116218      -0.00398739 </v>
   <v>       0.00350917      -0.00114319      -0.00175702 </v>
   <v>      -0.00034693      -0.00049749       0.00228480 </v>
  </varray>
  <varray name="stress" >
   <v>      -4.06120977       0.05579676       0.03575510 </v>
   <v>       0.05579678      -4.06108118       0.00401655 </v>
   <v>       0.03575513       0.00401657      -4.06121913 </v>
  </varray>
  <energy>
   <i name="e_fr_energy">    -91.94404349 </i>
   <i name="e_wo_entrp">    -91.94404349 </i>
   <i name="e_0_energy">    -91.94404349 </i>
  </energy>
  <time name="totalsc">   22.69   23.00</time>
 </calculation>
 <calculation>
  <scstep>
   <time name="dav">    4.05    4.06</time>
   <time name="total">    4.40    4.40</time>
   <energy>
    <i name="alphaZ">     26.71045930 </i>
    <i name="ewald">  -1823.90608657 </i>
    <i name="hartreedc">   -117.53350643 </i>
    <i name="XCdc">   -135.04613154 </i>
    <i name="pawpsdc">   6843.30839413 </i>
    <i name="pawaedc">  -6568.36890325 </i>
    <i name="eentropy">     -0.00000000 </i>
    <i name="bandstr">     41.67974782 </i>
    <i name="atom">   1641.21197842 </i>
    <i name="e_fr_energy">    -91.94404812 </i>
    <i name="e_wo_entrp">    -91.94404812 </i>
    <i name="e_0_energy">    -91.94404812 </i>
   </energy>
  </scstep>
  <scstep>
   <time name="diag">    1.23    1.23</time>
   <time name="diis">    2.03    2.03</time>
   <time name="orth">    0.09    0.09</time>
   <time name="total">    3.71    3.72</time>
   <energy>
    <i name="e_fr_energy">    -91.94404817 </i>
    <i name="e_wo_entrp">    -91.94404817 </i>
    <i name="e_0_energy">    -91.94404817 </i>
   </energy>
  </scstep>
  <scstep>
   <time name="diag">    1.23    1.23</time>
   <time name="diis">    2.00    2.00</time>
   <time name="orth">    0.09    0.09</time>
   <time name="total">    3.66    3.68</time>
   <energy>
    <i name="e_fr_energy">    -91.94404817 </i>
    <i name="e_wo_entrp">    -91.94404817 </i>
    <i name="e_0_energy">    -91.94404817 </i>
   </energy>
  </scstep>
  <scstep>
[...]
     <v>       5.44370237       5.44370237       0.00000000 </v>
    </varray>
    <i name="volume">    322.63621478 </i>
    <varray name="rec_basis" >
     <v>      -0.09184925       0.09184925       0.09184925 </v>
     <v>       0.09184925      -0.09184925       0.09184925 </v>
     <v>       0.09184925       0.09184925      -0.09184925 </v>
    </varray>
   </crystal>
   <varray name="positions" >
    <v>       0.12503391       0.12512843       0.12544121 </v>
    <v>       0.62503432       0.12512927       0.12544084 </v>
    <v>       0.12503437       0.62512820       0.12544186 </v>
    <v>       0.62503391       0.62512943       0.12544209 </v>
    <v>       0.12503410       0.12512819       0.62544090 </v>
    <v>       0.62503360       0.12512945       0.62544112 </v>
    <v>       0.12503364       0.62512843       0.62544213 </v>
    <v>       0.62503411       0.62512932       0.62544175 </v>
    <v>       0.00003433       0.00012819       0.00044096 </v>
    <v>       0.50003386       0.00012942       0.00044116 </v>
    <v>       0.00003391       0.50012841       0.00044216 </v>
    <v>       0.50003434       0.50012929       0.00044176 </v>
    <v>       0.00003361       0.00012842       0.50044118 </v>
    <v>       0.50003406       0.00012927       0.50044082 </v>
    <v>       0.00003410       0.50012819       0.50044185 </v>
    <v>       0.50003362       0.50012947       0.50044210 </v>
   </varray>
  </structure>
  <varray name="forces" >
   <v>       0.00000207      -0.00000133      -0.00000110 </v>
   <v>       0.00000046       0.00000130      -0.00000297 </v>
   <v>       0.00000373      -0.00000468       0.00000228 </v>
   <v>      -0.00000830      -0.00000392      -0.00000627 </v>
   <v>       0.00001143       0.00000364       0.00000072 </v>
   <v>      -0.00000079       0.00000444      -0.00000270 </v>
   <v>      -0.00000269      -0.00000375       0.00000097 </v>
   <v>      -0.00000514      -0.00000103      -0.00000682 </v>
   <v>       0.00000796       0.00000067       0.00000514 </v>
   <v>      -0.00000347       0.00000315       0.00000068 </v>
   <v>      -0.00000283      -0.00000630       0.00000371 </v>
   <v>      -0.00000488      -0.00000103      -0.00000262 </v>
   <v>       0.00000508       0.00000465       0.00000381 </v>
   <v>       0.00000327       0.00000495      -0.00000008 </v>
   <v>       0.00000368       0.00000062       0.00000608 </v>
   <v>      -0.00000958      -0.00000137      -0.00000083 </v>
  </varray>
  <varray name="stress" >
   <v>      -4.06050832      -0.00005366      -0.00001509 </v>
   <v>      -0.00005371      -4.06050850       0.00000735 </v>
   <v>      -0.00001506       0.00000742      -4.06050561 </v>
  </varray>
  <energy>
   <i name="e_fr_energy">    -91.94407701 </i>
   <i name="e_wo_entrp">    -91.94407701 </i>
   <i name="e_0_energy">    -91.94407701 </i>
  </energy>
  <time name="totalsc">   16.46   16.55</time>
 </calculation>
 <calculation>
  <scstep>
   <time name="dav">    2.69    2.69</time>
   <time name="total">    3.03    3.03</time>
   <energy>
    <i name="alphaZ">     26.71045930 </i>
    <i name="ewald">  -1823.90579713 </i>
    <i name="hartreedc">   -117.53373721 </i>
    <i name="XCdc">   -135.04610971 </i>
    <i name="pawpsdc">   6843.32369697 </i>
    <i name="pawaedc">  -6568.38421278 </i>
    <i name="eentropy">     -0.00000000 </i>
    <i name="bandstr">     41.67964513 </i>
    <i name="atom">   1641.21197842 </i>
    <i name="e_fr_energy">    -91.94407701 </i>
    <i name="e_wo_entrp">    -91.94407701 </i>
    <i name="e_0_energy">    -91.94407701 </i>
   </energy>
  </scstep>
  <scstep>
   <time name="diag">    1.23    1.23</time>
   <time name="diis">    0.65    0.65</time>
   <time name="orth">    0.09    0.09</time>
   <time name="total">    2.33    2.34</time>
   <energy>
    <i name="e_fr_energy">    -91.94407701 </i>
    <i name="e_wo_entrp">    -91.94407701 </i>
    <i name="e_0_energy">    -91.94407701 </i>
   </energy>
  </scstep>
  <scstep>
   <time name="diag">    1.23    1.23</time>
   <time name="diis">    0.64    0.64</time>
   <time name="orth">    0.09    0.09</time>
   <time name="total">    2.32    2.33</time>
   <energy>
    <i name="e_fr_energy">    -91.94407701 </i>
    <i name="e_wo_entrp">    -91.94407701 </i>
    <i name="e_0_energy">    -91.94407701 </i>
   </energy>
  </scstep>
  <scstep>
   <time name="diag">    1.23    1.23</time>
   <time name="diis">    0.64    0.64</time>
   <time name="orth">    0.09    0.09</time>
   <time name="total">    2.32    2.33</time>
   <energy>
    <i name="e_fr_energy">    -91.94407701 </i>
    <i name="e_wo_entrp">    -91.94407701 </i>
    <i name="e_0_energy">    -91.94407701 </i>
   </energy>
  </scstep>
  <scstep>
   <time name="diag">    1.23    1.23</time>
   <time name="diis">    0.64    0.64</time>
   <time name="orth">    0.09    0.09</time>
   <time name="total">    2.08    2.09</time>
   <energy>
    <i name="alphaZ">     26.71045930 </i>
    <i name="ewald">  -1823.90579713 </i>
    <i name="hartreedc">   -117.53373721 </i>
    <i name="XCdc">   -135.04610971 </i>
    <i name="pawpsdc">   6843.32369699 </i>
    <i name="pawaedc">  -6568.38421279 </i>
    <i name="eentropy">     -0.00000000 </i>
    <i name="bandstr">     41.67964513 </i>
    <i name="atom">   1641.21197842 </i>
    <i name="e_fr_energy">    -91.94407701 </i>
    <i name="e_wo_entrp">    -91.94407701 </i>
    <i name="e_0_energy">    -91.94407701 </i>
   </energy>
  </scstep>
  <structure>
   <crystal>
    <varray name="basis" >
     <v>       0.00000000       5.44370237       5.44370237 </v>
     <v>       5.44370237       0.00000000       5.44370237 </v>
     <v>       5.44370237       5.44370237       0.00000000 </v>
    </varray>
    <i name="volume">    322.63621478 </i>
    <varray name="rec_basis" >
     <v>      -0.09184925       0.09184925       0.09184925 </v>
     <v>       0.09184925      -0.09184925       0.09184925 </v>
     <v>       0.09184925       0.09184925      -0.09184925 </v>
    </varray>
   </crystal>
   <varray name="positions" >
    <v>       0.12503391       0.12512843       0.12544121 </v>
    <v>       0.62503432       0.12512927       0.12544084 </v>
    <v>       0.12503437       0.62512820       0.12544186 </v>
    <v>       0.62503391       0.62512943       0.12544209 </v>
    <v>       0.12503410       0.12512819       0.62544090 </v>
    <v>       0.62503360       0.12512945       0.62544112 </v>
    <v>       0.12503364       0.62512843       0.62544213 </v>
    <v>       0.62503411       0.62512932       0.62544175 </v>
    <v>       0.00003433       0.00012819       0.00044096 </v>
    <v>       0.50003386       0.00012942       0.00044116 </v>
    <v>       0.00003391       0.50012841       0.00044216 </v>
    <v>       0.50003434       0.50012929       0.00044176 </v>
    <v>       0.00003361       0.00012842       0.50044118 </v>
    <v>       0.50003406       0.00012927       0.50044082 </v>
    <v>       0.00003410       0.50012819       0.50044185 </v>
    <v>       0.50003362       0.50012947       0.50044210 </v>
   </varray>
  </structure>
  <varray name="forces" >
   <v>       0.00000207      -0.00000133      -0.00000110 </v>
   <v>       0.00000046       0.00000130      -0.00000297 </v>
   <v>       0.00000373      -0.00000468       0.00000228 </v>
   <v>      -0.00000830      -0.00000392      -0.00000627 </v>
   <v>       0.00001143       0.00000364       0.00000072 </v>
   <v>      -0.00000079       0.00000444      -0.00000270 </v>
   <v>      -0.00000269      -0.00000375       0.00000097 </v>
   <v>      -0.00000514      -0.00000103      -0.00000682 </v>
   <v>       0.00000796       0.00000067       0.00000514 </v>
   <v>      -0.00000347       0.00000315       0.00000068 </v>
   <v>      -0.00000283      -0.00000630       0.00000371 </v>
   <v>      -0.00000488      -0.00000103      -0.00000262 </v>
   <v>       0.00000508       0.00000465       0.00000381 </v>
   <v>       0.00000327       0.00000494      -0.00000008 </v>
   <v>       0.00000368       0.00000062       0.00000608 </v>
   <v>      -0.00000958      -0.00000137      -0.00000083 </v>
  </varray>
  <varray name="stress" >
   <v>      -4.06050829      -0.00005373      -0.00001510 </v>
   <v>      -0.00005369      -4.06050852       0.00000739 </v>
   <v>      -0.00001503       0.00000741      -4.06050564 </v>
  </varray>
  <energy>
   <i name="e_fr_energy">    -91.94407701 </i>
   <i name="e_wo_entrp">    -91.94407701 </i>
   <i name="e_0_energy">    -91.94407701 </i>
  </energy>
  <time name="totalsc">   16.29   16.40</time>
 </calculation>
 <calculation>
  <scstep>
   <time name="dav">    2.81    2.81</time>
   <time name="total">    3.14    3.14</time>
   <energy>
    <i name="alphaZ">     26.71045930 </i>
    <i name="ewald">  -1823.90579713 </i>
    <i name="hartreedc">   -117.53373721 </i>
    <i name="XCdc">   -135.04610971 </i>
    <i name="pawpsdc">   6843.32369699 </i>
    <i name="pawaedc">  -6568.38421279 </i>
    <i name="eentropy">     -0.00000000 </i>
    <i name="bandstr">     41.67964513 </i>
    <i name="atom">   1641.21197842 </i>
    <i name="e_fr_energy">    -91.94407701 </i>
    <i name="e_wo_entrp">    -91.94407701 </i>
    <i name="e_0_energy">    -91.94407701 </i>
   </energy>
  </scstep>
  <scstep>
   <time name="diag">    1.23    1.23</time>
   <time name="diis">    0.65    0.65</time>
   <time name="orth">    0.09    0.09</time>
   <time name="total">    2.33    2.34</time>
   <energy>
    <i name="e_fr_energy">    -91.94407701 </i>
    <i name="e_wo_entrp">    -91.94407701 </i>
    <i name="e_0_energy">    -91.94407701 </i>
   </energy>
  </scstep>
  <scstep>
   <time name="diag">    1.24    1.24</time>
   <time name="diis">    0.65    0.65</time>
   <time name="orth">    0.09    0.09</time>
   <time name="total">    2.33    2.34</time>
   <energy>
    <i name="e_fr_energy">    -91.94407701 </i>
    <i name="e_wo_entrp">    -91.94407701 </i>
    <i name="e_0_energy">    -91.94407701 </i>
   </energy>
  </scstep>
  <scstep>
   <time name="diag">    1.23    1.23</time>
   <time name="diis">    0.65    0.65</time>
   <time name="orth">    0.09    0.09</time>
   <time name="total">    2.32    2.34</time>
   <energy>
    <i name="e_fr_energy">    -91.94407701 </i>
    <i name="e_wo_entrp">    -91.94407701 </i>
    <i name="e_0_energy">    -91.94407701 </i>
   </energy>
  </scstep>
  <scstep>
   <time name="diag">    1.23    1.23</time>
   <time name="diis">    0.65    0.65</time>
   <time name="orth">    0.09    0.09</time>
   <time name="total">    2.08    2.10</time>
   <energy>
    <i name="alphaZ">     26.71045930 </i>
    <i name="ewald">  -1823.90579713 </i>
    <i name="hartreedc">   -117.53373721 </i>
    <i name="XCdc">   -135.04610971 </i>
    <i name="pawpsdc">   6843.32369698 </i>
    <i name="pawaedc">  -6568.38421279 </i>
    <i name="eentropy">     -0.00000000 </i>
    <i name="bandstr">     41.67964513 </i>
    <i name="atom">   1641.21197842 </i>
    <i name="e_fr_energy">    -91.94407701 </i>
    <i name="e_wo_entrp">    -91.94407701 </i>
    <i name="e_0_energy">    -91.94407701 </i>
   </energy>
  </scstep>
  <structure>
   <crystal>
    <varray name="basis" >
     <v>       0.00000000       5.44370237       5.44370237 </v>
     <v>       5.44370237       0.00000000       5.44370237 </v>
     <v>       5.44370237       5.44370237       0.00000000 </v>
    </varray>
    <i name="volume">    322.63621478 </i>
    <varray name="rec_basis" >
     <v>      -0.09184925       0.09184925       0.09184925 </v>
     <v>       0.09184925      -0.09184925       0.09184925 </v>
     <v>       0.09184925       0.09184925      -0.09184925 </v>
    </varray>
   </crystal>
   <varray name="positions" >
    <v>       0.12503391       0.12512843       0.12544121 </v>
    <v>       0.62503432       0.12512927       0.12544084 </v>
    <v>       0.12503437       0.62512820       0.12544186 </v>
    <v>       0.62503391       0.62512943       0.12544209 </v>
    <v>       0.12503410       0.12512819       0.62544090 </v>
    <v>       0.62503360       0.12512945       0.62544112 </v>
    <v>       0.12503364       0.62512843       0.62544213 </v>
    <v>       0.62503411       0.62512932       0.62544175 </v>
    <v>       0.00003433       0.00012819       0.00044096 </v>
    <v>       0.50003386       0.00012942       0.00044116 </v>
    <v>       0.00003391       0.50012841       0.00044216 </v>
    <v>       0.50003434       0.50012929       0.00044176 </v>
    <v>       0.00003361       0.00012842       0.50044118 </v>
    <v>       0.50003406       0.00012927       0.50044082 </v>
    <v>       0.00003410       0.50012819       0.50044185 </v>
    <v>       0.50003362       0.50012947       0.50044210 </v>
   </varray>
  </structure>
  <varray name="forces" >
   <v>       0.00000207      -0.00000133      -0.00000110 </v>
   <v>       0.00000046       0.00000130      -0.00000297 </v>
   <v>       0.00000373      -0.00000468       0.00000228 </v>
   <v>      -0.00000830      -0.00000392      -0.00000627 </v>
   <v>       0.00001143       0.00000364       0.00000072 </v>
   <v>      -0.00000079       0.00000444      -0.00000270 </v>
   <v>      -0.00000269      -0.00000375       0.00000097 </v>
   <v>      -0.00000514      -0.00000103      -0.00000682 </v>
   <v>       0.00000796       0.00000067       0.00000514 </v>
   <v>      -0.00000347       0.00000315       0.00000068 </v>
   <v>      -0.00000283      -0.00000630       0.00000371 </v>
   <v>      -0.00000488      -0.00000103      -0.00000262 </v>
   <v>       0.00000508       0.00000465       0.00000381 </v>
   <v>       0.00000328       0.00000494      -0.00000009 </v>
   <v>       0.00000368       0.00000062       0.00000608 </v>
   <v>      -0.00000958      -0.00000137      -0.00000083 </v>
  </varray>
  <varray name="stress" >
   <v>      -4.06050827      -0.00005367      -0.00001513 </v>
   <v>      -0.00005364      -4.06050858       0.00000737 </v>
   <v>      -0.00001512       0.00000741      -4.06050565 </v>
  </varray>
  <energy>
   <i name="e_fr_energy">    -91.94407701 </i>
   <i name="e_wo_entrp">    -91.94407701 </i>
   <i name="e_0_energy">    -91.94407701 </i>
  </energy>
  <time name="totalsc">   16.41   16.51</time>
 </calculation>
 <calculation>
  <scstep>
   <time name="dav">    2.74    2.74</time>
   <time name="total">    3.07    3.07</time>
   <energy>
    <i name="alphaZ">     26.71045930 </i>
    <i name="ewald">  -1823.90579713 </i>
    <i name="hartreedc">   -117.53373721 </i>
    <i name="XCdc">   -135.04610971 </i>
    <i name="pawpsdc">   6843.32369698 </i>
    <i name="pawaedc">  -6568.38421279 </i>
    <i name="eentropy">     -0.00000000 </i>
    <i name="bandstr">     41.67964513 </i>
    <i name="atom">   1641.21197842 </i>
    <i name="e_fr_energy">    -91.94407701 </i>
    <i name="e_wo_entrp">    -91.94407701 </i>
    <i name="e_0_energy">    -91.94407701 </i>
   </energy>
  </scstep>
  <scstep>
   <time name="diag">    1.23    1.23</time>
   <time name="diis">    0.65    0.65</time>
   <time name="orth">    0.09    0.09</time>
   <time name="total">    2.32    2.34</time>
   <energy>
    <i name="e_fr_energy">    -91.94407701 </i>
    <i name="e_wo_entrp">    -91.94407701 </i>
    <i name="e_0_energy">    -91.94407701 </i>
   </energy>
  </scstep>
  <scstep>
   <time name="diag">    1.23    1.23</time>
   <time name="diis">    0.64    0.64</time>
   <time name="orth">    0.09    0.09</time>
   <time name="total">    2.31    2.33</time>
   <energy>
    <i name="e_fr_energy">    -91.94407701 </i>
    <i name="e_wo_entrp">    -91.94407701 </i>
    <i name="e_0_energy">    -91.94407701 </i>
   </energy>
  </scstep>
  <scstep>
   <time name="diag">    1.23    1.23</time>
   <time name="diis">    0.64    0.64</time>
   <time name="orth">    0.09    0.09</time>
   <time name="total">    2.31    2.33</time>
   <energy>
    <i name="e_fr_energy">    -91.94407701 </i>
    <i name="e_wo_entrp">    -91.94407701 </i>
    <i name="e_0_energy">    -91.94407701 </i>
   </energy>
  </scstep>
  <scstep>
   <time name="diag">    1.23    1.23</time>
   <time name="diis">    0.64    0.64</time>
   <time name="orth">    0.09    0.09</time>
   <time name="total">    2.07    2.09</time>
   <energy>
    <i name="alphaZ">     26.71045930 </i>
    <i name="ewald">  -1823.90579713 </i>
    <i name="hartreedc">   -117.53373705 </i>
    <i name="XCdc">   -135.04610971 </i>
    <i name="pawpsdc">   6843.32380061 </i>
    <i name="pawaedc">  -6568.38431641 </i>
    <i name="eentropy">     -0.00000000 </i>
    <i name="bandstr">     41.67964496 </i>
    <i name="atom">   1641.21197842 </i>
    <i name="e_fr_energy">    -91.94407701 </i>
    <i name="e_wo_entrp">    -91.94407701 </i>
    <i name="e_0_energy">    -91.94407701 </i>
   </energy>
  </scstep>
  <structure>
   <crystal>
    <varray name="basis" >
     <v>       0.00000000       5.44370237       5.44370237 </v>
     <v>       5.44370237       0.00000000       5.44370237 </v>
     <v>       5.44370237       5.44370237       0.00000000 </v>
    </varray>
    <i name="volume">    322.63621478 </i>
    <varray name="rec_basis" >
     <v>      -0.09184925       0.09184925       0.09184925 </v>
     <v>       0.09184925      -0.09184925       0.09184925 </v>
     <v>       0.09184925       0.09184925      -0.09184925 </v>
    </varray>
   </crystal>
   <varray name="positions" >
    <v>       0.12503382       0.12512840       0.12544120 </v>
    <v>       0.62503436       0.12512926       0.12544075 </v>
    <v>       0.12503430       0.62512817       0.12544188 </v>
    <v>       0.62503386       0.62512947       0.12544211 </v>
    <v>       0.12503396       0.12512810       0.62544097 </v>
    <v>       0.62503352       0.12512946       0.62544117 </v>
    <v>       0.12503354       0.62512836       0.62544226 </v>
    <v>       0.62503410       0.62512926       0.62544184 </v>
    <v>       0.00003441       0.00012819       0.00044093 </v>
    <v>       0.50003388       0.00012944       0.00044112 </v>
    <v>       0.00003399       0.50012837       0.00044216 </v>
    <v>       0.50003443       0.50012934       0.00044181 </v>
    <v>       0.00003368       0.00012842       0.50044108 </v>
    <v>       0.50003413       0.00012940       0.50044072 </v>
    <v>       0.00003421       0.50012818       0.50044183 </v>
    <v>       0.50003361       0.50012952       0.50044208 </v>
   </varray>
  </structure>
  <varray name="forces" >
   <v>       0.00000210       0.00001074       0.00001692 </v>
   <v>       0.00001080       0.00000592       0.00000245 </v>
   <v>       0.00000305       0.00001019       0.00002013 </v>
   <v>      -0.00000964       0.00000668       0.00000548 </v>
   <v>       0.00000666       0.00001279       0.00003201 </v>
   <v>      -0.00000592       0.00000731       0.00001497 </v>
   <v>      -0.00000893      -0.00000368       0.00002350 </v>
   <v>      -0.00000431      -0.00000643       0.00001269 </v>
   <v>       0.00000461      -0.00000792      -0.00001149 </v>
   <v>      -0.00000067      -0.00000088      -0.00000847 </v>
   <v>       0.00000349      -0.00001600      -0.00001211 </v>
   <v>      -0.00001224      -0.00001603      -0.00002285 </v>
   <v>       0.00001296       0.00000164      -0.00001764 </v>
   <v>      -0.00000162       0.00000207      -0.00002845 </v>
   <v>       0.00000528      -0.00000883      -0.00001637 </v>
   <v>      -0.00000563       0.00000243      -0.00001078 </v>
  </varray>
  <varray name="stress" >
   <v>      -4.06051088       0.00051528       0.00017719 </v>
   <v>       0.00051531      -4.06051102      -0.00002101 </v>
   <v>       0.00017714      -0.00002097      -4.06050747 </v>
  </varray>
  <energy>
   <i name="e_fr_energy">    -91.94407701 </i>
   <i name="e_wo_entrp">    -91.94407701 </i>
   <i name="e_0_energy">    -91.94407701 </i>
  </energy>
