 vasp.6.3.0 20Jan22 (build Feb 21 2022 11:18:28) complex                         
 executed on       CrayXC_GCC_OMP date 2023.09.28  06:28:28
 running  128 mpi-ranks, with    1 threads/rank
 distrk:  each k-point on  128 cores,    1 groups
 distr:  one band on NCORE=  16 cores,    8 groups


--------------------------------------------------------------------------------------------------------


 INCAR:
   NWRITE = 2        (Medium-level output)   
   ISTART = 1        (Read existing wavefunction
   INIWAV = 1        (Random initial wavefunction
   ICORELEVEL = 1    (Print core levels)
   LPLANE = TRUE (Real space distribution
   NCORE = 16     (how many cores share the work on an individual orbital)
   PREC = Accurate  (Precision level)
   LREAL = .FALSE. (Accurate forces
   ALGO = FAST      (SCF minimisation algorithm
   ENMAX = 600.00 eV (Plane-wave cutoff) 
   NELM = 500     (Max SCF steps)   
   NELMIN = 5        (Min SCF steps)
   EDIFF = 1E-08     (SCF energy convergence
   ISPIN = 1        (Closed shell DFT)
   GGA = PS     (PBEsol exchange-correlation)
   ADDGRID = TRUE  (Increase grid
   EDIFFG = -1E-07    (Ionic convergence
   NSW = 200         (Max ionic steps
   NBLOCK = 1     (Update XDATCAR, DOSCAR every NBLOCK steps) 
   IBRION = 2     (Algorithm: 0-MD
   ISIF = 7     (Stress/relaxation: 2-Ions, 3-Shape/Ions/V, 7-Vol)
   ISYM = 2     (Symmetry: 0\=none
   2 = GGA
   3 = hybrids) 
   ISMEAR = 0     (Gaussian smearing
   SIGMA = 0.01  (Smearing value in eV
   LORBIT = 11     (PAW radii for projected DOS)
   NEDOS = 1000    (DOSCAR points)
   LMAXMIX = 4       (Mixing cut-off
   ML_ISTART = 0
   ML_LMLFF = TRUE

 POTCAR:    PAW_PBE Pb_d 06Sep2000                
 POTCAR:    PAW_PBE Te 08Apr2002                  
 POTCAR:    PAW_PBE Pb_d 06Sep2000                
   VRHFIN =Pb:                                                                                      
   LEXCH  = PE                                                                                      
   EATOM  =  1661.6185 eV,  122.1255 Ry                                                             
                                                                                                    
   TITEL  = PAW_PBE Pb_d 06Sep2000                                                                  
   LULTRA =        F    use ultrasoft PP ?                                                          
   IUNSCR =        1    unscreen: 0-lin 1-nonlin 2-no                                               
   RPACOR =    2.200    partial core radius                                                         
   POMASS =  207.200; ZVAL   =   14.000    mass and valenz                                          
   RCORE  =    2.500    outmost cutoff radius                                                       
   RWIGS  =    3.260; RWIGS  =    1.725    wigner-seitz radius (au A)                               
   ENMAX  =  237.835; ENMIN  =  178.376 eV                                                          
   ICORE  =        3    local potential                                                             
   LCOR   =        T    correct aug charges                                                         
   LPAW   =        T    paw PP                                                                      
   EAUG   =  391.914                                                                                
   DEXC   =    0.000                                                                                
   RMAX   =    2.565    core radius for proj-oper                                                   
   RAUG   =    1.300    factor for augmentation sphere                                              
   RDEP   =    2.643    radius for radial grids                                                     
   RDEPT  =    2.092    core radius for aug-charge                                                  
                                                                                                    
   Atomic configuration                                                                             
   16 entries                                                                                       
     n  l   j            E        occ.                                                              
     1  0  0.50    -88091.8466   2.0000                                                             
     2  0  0.50    -15753.4197   2.0000                                                             
     2  1  1.50    -13508.1797   6.0000                                                             
     3  0  0.50     -3781.7194   2.0000                                                             
     3  1  1.50     -3138.2529   6.0000                                                             
     3  2  2.50     -2483.2977  10.0000                                                             
     4  0  0.50      -856.2895   2.0000                                                             
     4  1  1.50      -645.4942   6.0000                                                             
     4  2  2.50      -401.8768  10.0000                                                             
     4  3  3.50      -132.9059  14.0000                                                             
     5  0  0.50      -144.0950   2.0000                                                             
     5  1  1.50       -85.7879   6.0000                                                             
     5  2  2.50       -21.1769  10.0000                                                             
     6  0  0.50       -12.0372   2.0000                                                             
     6  1  1.50        -3.4971   2.0000                                                             
     5  3  2.50        -2.7212   0.0000                                                             
   Description                                                                                      
     l       E           TYP  RCUT    TYP  RCUT                                                     
     2    -21.1768523     23  2.500                                                                 
     2      1.3605826     23  2.500                                                                 
     0    -12.0371562     23  2.500                                                                 
     0     13.6058260     23  2.500                                                                 
     1     -3.4971339     23  2.500                                                                 
     1     13.6058260     23  2.500                                                                 
     3     -1.3605826      7  2.500                                                                 
  local pseudopotential read in
  partial core-charges read in
  partial kinetic energy density read in
  atomic valenz-charges read in
  non local Contribution for L=           2  read in
    real space projection operators read in
  non local Contribution for L=           2  read in
    real space projection operators read in
  non local Contribution for L=           0  read in
    real space projection operators read in
  non local Contribution for L=           0  read in
    real space projection operators read in
  non local Contribution for L=           1  read in
    real space projection operators read in
  non local Contribution for L=           1  read in
    real space projection operators read in
    PAW grid and wavefunctions read in

   number of l-projection  operators is LMAX  =           6
   number of lm-projection operators is LMMAX =          18

 POTCAR:    PAW_PBE Te 08Apr2002                  
   VRHFIN =Te: s2p4                                                                                 
   LEXCH  = PE                                                                                      
   EATOM  =   223.2721 eV,   16.4100 Ry                                                             
                                                                                                    
   TITEL  = PAW_PBE Te 08Apr2002                                                                    
   LULTRA =        F    use ultrasoft PP ?                                                          
   IUNSCR =        1    unscreen: 0-lin 1-nonlin 2-no                                               
   RPACOR =    2.200    partial core radius                                                         
   POMASS =  127.600; ZVAL   =    6.000    mass and valenz                                          
   RCORE  =    2.300    outmost cutoff radius                                                       
   RWIGS  =    2.900; RWIGS  =    1.535    wigner-seitz radius (au A)                               
   ENMAX  =  174.982; ENMIN  =  131.236 eV                                                          
   ICORE  =        3    local potential                                                             
   LCOR   =        T    correct aug charges                                                         
   LPAW   =        T    paw PP                                                                      
   EAUG   =  368.792                                                                                
   DEXC   =    0.000                                                                                
   RMAX   =    2.345    core radius for proj-oper                                                   
   RAUG   =    1.300    factor for augmentation sphere                                              
   RDEP   =    2.397    radius for radial grids                                                     
   RDEPT  =    2.174    core radius for aug-charge                                                  
                                                                                                    
   Atomic configuration                                                                             
   13 entries                                                                                       
     n  l   j            E        occ.                                                              
     1  0  0.50    -31621.2075   2.0000                                                             
     2  0  0.50     -4848.7941   2.0000                                                             
     2  1  1.50     -4352.1960   6.0000                                                             
     3  0  0.50      -964.9612   2.0000                                                             
     3  1  1.50      -803.6179   6.0000                                                             
     3  2  2.50      -559.8710  10.0000                                                             
     4  0  0.50      -164.3522   2.0000                                                             
     4  1  1.50      -114.3756   6.0000                                                             
     4  2  2.50       -41.6483  10.0000                                                             
     5  0  0.50       -15.1072   2.0000                                                             
     5  1  0.50        -5.9526   4.0000                                                             
     5  2  1.50        -5.4423   0.0000                                                             
     4  3  2.50        -5.4423   0.0000                                                             
   Description                                                                                      
     l       E           TYP  RCUT    TYP  RCUT                                                     
     0    -15.1072389     23  2.300                                                                 
     0    -16.4678215     23  2.300                                                                 
     1     -5.9526306     23  2.300                                                                 
     1     -2.4873968     23  2.300                                                                 
     2     -5.4423304     23  2.300                                                                 
     3     -1.3605826     23  2.300                                                                 
  local pseudopotential read in
  partial core-charges read in
  partial kinetic energy density read in
  atomic valenz-charges read in
  non local Contribution for L=           0  read in
    real space projection operators read in
  non local Contribution for L=           0  read in
    real space projection operators read in
  non local Contribution for L=           1  read in
    real space projection operators read in
  non local Contribution for L=           1  read in
    real space projection operators read in
  non local Contribution for L=           2  read in
    real space projection operators read in
    PAW grid and wavefunctions read in

   number of l-projection  operators is LMAX  =           5
   number of lm-projection operators is LMMAX =          13

 -----------------------------------------------------------------------------
|                                                                             |
|               ----> ADVICE to this user running VASP <----                  |
|                                                                             |
|     You enforced a specific xc type in the INCAR file but a different       |
|     type was found in the POTCAR file.                                      |
|     I HOPE YOU KNOW WHAT YOU ARE DOING!                                     |
|                                                                             |
 -----------------------------------------------------------------------------

  PAW_PBE Pb_d 06Sep2000                :
 energy of atom  1       EATOM=-1661.6185
 kinetic energy error for atom=    0.0014 (will be added to EATOM!!)
  PAW_PBE Te 08Apr2002                  :
 energy of atom  2       EATOM= -223.2721
 kinetic energy error for atom=    0.0004 (will be added to EATOM!!)


 POSCAR: generated by phonopy
  positions in direct lattice
  velocities in cartesian coordinates
 exchange correlation table for  LEXCH =       14
   RHO(1)=    0.500       N(1)  =     2000
   RHO(2)=  100.500       N(2)  =     4000



--------------------------------------------------------------------------------------------------------


 ion  position               nearest neighbor table
   1  0.250  0.250  0.250-  10 3.22  11 3.22  12 3.22  13 3.22  14 3.22  15 3.22
   2  0.750  0.250  0.250-   9 3.22  11 3.22  12 3.22  13 3.22  14 3.22  16 3.22
   3  0.250  0.750  0.250-   9 3.22  10 3.22  12 3.22  13 3.22  15 3.22  16 3.22
   4  0.750  0.750  0.250-   9 3.22  10 3.22  11 3.22  14 3.22  15 3.22  16 3.22
   5  0.250  0.250  0.750-   9 3.22  10 3.22  11 3.22  14 3.22  15 3.22  16 3.22
   6  0.750  0.250  0.750-   9 3.22  10 3.22  12 3.22  13 3.22  15 3.22  16 3.22
   7  0.250  0.750  0.750-   9 3.22  11 3.22  12 3.22  13 3.22  14 3.22  16 3.22
   8  0.750  0.750  0.750-  10 3.22  11 3.22  12 3.22  13 3.22  14 3.22  15 3.22
   9  0.000  0.000  0.000-   2 3.22   3 3.22   4 3.22   5 3.22   6 3.22   7 3.22
  10  0.500  0.000  0.000-   1 3.22   3 3.22   4 3.22   5 3.22   6 3.22   8 3.22
  11  0.000  0.500  0.000-   1 3.22   2 3.22   4 3.22   5 3.22   7 3.22   8 3.22
  12  0.500  0.500  0.000-   1 3.22   2 3.22   3 3.22   6 3.22   7 3.22   8 3.22
  13  0.000  0.000  0.500-   1 3.22   2 3.22   3 3.22   6 3.22   7 3.22   8 3.22
  14  0.500  0.000  0.500-   1 3.22   2 3.22   4 3.22   5 3.22   7 3.22   8 3.22
  15  0.000  0.500  0.500-   1 3.22   3 3.22   4 3.22   5 3.22   6 3.22   8 3.22
  16  0.500  0.500  0.500-   2 3.22   3 3.22   4 3.22   5 3.22   6 3.22   7 3.22

  LATTYP: Found a face centered cubic cell.
 ALAT       =    12.8886093983
  
  Lattice vectors:
  
 A1 = (   0.0000000000,   6.4443046991,   6.4443046991)
 A2 = (   6.4443046991,   0.0000000000,   6.4443046991)
 A3 = (   6.4443046991,   6.4443046991,   0.0000000000)


Analysis of symmetry for initial positions (statically):
=====================================================================
 Subroutine PRICEL returns following result:
 
  LATTYP: Found a face centered cubic cell.
 ALAT       =     6.4443046991
  
  Lattice vectors:
  
 A1 = (   0.0000000000,   3.2221523496,   3.2221523496)
 A2 = (   3.2221523496,   0.0000000000,   3.2221523496)
 A3 = (   3.2221523496,   3.2221523496,   0.0000000000)
 
   8 primitive cells build up your supercell.
 

 Routine SETGRP: Setting up the symmetry group for a 
 face centered cubic supercell.


 Subroutine GETGRP returns: Found 48 space group operations
 (whereof 48 operations were pure point group operations)
 out of a pool of 48 trial point group operations.


The static configuration has the point symmetry O_h .


Analysis of symmetry for dynamics (positions and initial velocities):
=====================================================================
 Subroutine PRICEL returns following result:
 
  LATTYP: Found a face centered cubic cell.
 ALAT       =     6.4443046991
  
  Lattice vectors:
  
 A1 = (   0.0000000000,   3.2221523496,   3.2221523496)
 A2 = (   3.2221523496,   0.0000000000,   3.2221523496)
 A3 = (   3.2221523496,   3.2221523496,   0.0000000000)
 
   8 primitive cells build up your supercell.
 

 Routine SETGRP: Setting up the symmetry group for a 
 face centered cubic supercell.


 Subroutine GETGRP returns: Found 48 space group operations
 (whereof 48 operations were pure point group operations)
 out of a pool of 48 trial point group operations.


The dynamic configuration has the point symmetry O_h .


 Subroutine INISYM returns: Found 48 space group operations
 (whereof 48 operations are pure point group operations),
 and found     8 'primitive' translations


----------------------------------------------------------------------------------------

                                     Primitive cell                                     

  volume of cell :      66.9065

  direct lattice vectors                    reciprocal lattice vectors
     0.000000000  3.222152350  3.222152350    -0.155175779  0.155175779  0.155175779
     3.222152350  0.000000000  3.222152350     0.155175779 -0.155175779  0.155175779
     3.222152350  3.222152350  0.000000000     0.155175779  0.155175779 -0.155175779

  length of vectors
     4.556811553  4.556811553  4.556811553     0.268772333  0.268772333  0.268772333

  position of ions in fractional coordinates (direct lattice)
     0.500000000  0.500000000  0.500000000
     0.000000000  0.000000000  0.000000000

  ion indices of the primitive-cell ions
   primitive index   ion index
                 1           1
                 2           9

----------------------------------------------------------------------------------------



 KPOINTS: Regular k-point mesh                    

Automatic generation of k-mesh.
 Grid dimensions read from file:
 generate k-points for:    6    6    6

 Generating k-lattice:

  Cartesian coordinates                     Fractional coordinates (reciprocal lattice)
    -0.012931315  0.012931315  0.012931315     0.166666667  0.000000000 -0.000000000
     0.012931315 -0.012931315  0.012931315     0.000000000  0.166666667  0.000000000
     0.012931315  0.012931315 -0.012931315    -0.000000000 -0.000000000  0.166666667

  Length of vectors
     0.022397694  0.022397694  0.022397694

  Shift w.r.t. Gamma in fractional coordinates (k-lattice)
     0.000000000  0.000000000  0.000000000

 
 Subroutine IBZKPT returns following result:
 ===========================================
 
 Found     16 irreducible k-points:
 
 Following reciprocal coordinates:
            Coordinates               Weight
  0.000000  0.000000  0.000000      1.000000
  0.166667  0.000000  0.000000      8.000000
  0.333333  0.000000  0.000000      8.000000
  0.500000  0.000000  0.000000      4.000000
  0.166667  0.166667  0.000000      6.000000
  0.333333  0.166667  0.000000     24.000000
  0.500000  0.166667  0.000000     24.000000
 -0.333333  0.166667  0.000000     24.000000
 -0.166667  0.166667  0.000000     12.000000
  0.333333  0.333333  0.000000      6.000000
  0.500000  0.333333  0.000000     24.000000
 -0.333333  0.333333  0.000000     12.000000
  0.500000  0.500000  0.000000      3.000000
  0.500000  0.333333  0.166667     24.000000
 -0.333333  0.333333  0.166667     24.000000
 -0.333333  0.500000  0.166667     12.000000
 
 Following cartesian coordinates:
            Coordinates               Weight
  0.000000  0.000000  0.000000      1.000000
 -0.012931  0.012931  0.012931      8.000000
 -0.025863  0.025863  0.025863      8.000000
 -0.038794  0.038794  0.038794      4.000000
  0.000000  0.000000  0.025863      6.000000
 -0.012931  0.012931  0.038794     24.000000
 -0.025863  0.025863  0.051725     24.000000
  0.038794 -0.038794 -0.012931     24.000000
  0.025863 -0.025863  0.000000     12.000000
  0.000000  0.000000  0.051725      6.000000
 -0.012931  0.012931  0.064657     24.000000
  0.051725 -0.051725  0.000000     12.000000
  0.000000  0.000000  0.077588      3.000000
  0.000000  0.025863  0.051725     24.000000
  0.064657 -0.038794 -0.012931     24.000000
  0.077588 -0.051725  0.000000     12.000000
 


--------------------------------------------------------------------------------------------------------




 Dimension of arrays:
   k-points           NKPTS =     16   k-points in BZ     NKDIM =     16   number of bands    NBANDS=     96
   number of dos      NEDOS =   1000   number of ions     NIONS =     16
   non local maximal  LDIM  =      6   non local SUM 2l+1 LMDIM =     18
   total plane-waves  NPLWV = 512000
   max r-space proj   IRMAX =      1   max aug-charges    IRDMAX= 445238
   dimension x,y,z NGX =    80 NGY =   80 NGZ =   80
   dimension x,y,z NGXF=   160 NGYF=  160 NGZF=  160
   support grid    NGXF=   320 NGYF=  320 NGZF=  320
   ions per type =               8   8
   NGX,Y,Z   is equivalent  to a cutoff of  14.59, 14.59, 14.59 a.u.
   NGXF,Y,Z  is equivalent  to a cutoff of  29.19, 29.19, 29.19 a.u.

 SYSTEM =  unknown system                          
 POSCAR =  generated by phonopy                    

 Startparameter for this run:
   NWRITE =      2    write-flag & timer
   PREC   = accura    normal or accurate (medium, high low for compatibility)
   ISTART =      0    job   : 0-new  1-cont  2-samecut
   ICHARG =      2    charge: 1-file 2-atom 10-const
   ISPIN  =      1    spin polarized calculation?
   LNONCOLLINEAR =      F non collinear calculations
   LSORBIT =      F    spin-orbit coupling
   INIWAV =      1    electr: 0-lowe 1-rand  2-diag
   LASPH  =      F    aspherical Exc in radial PAW
 Electronic Relaxation 1
   ENCUT  =  600.0 eV  44.10 Ry    6.64 a.u.  18.20 18.20 18.20*2*pi/ulx,y,z
   ENINI  =  600.0     initial cutoff
   ENAUG  =  391.9 eV  augmentation charge cutoff
   NELM   =    500;   NELMIN=  5; NELMDL=  0     # of ELM steps 
   EDIFF  = 0.1E-07   stopping-criterion for ELM
   LREAL  =      F    real-space projection
   NLSPLINE    = F    spline interpolate recip. space projectors
   LCOMPAT=      F    compatible to vasp.4.4
   GGA_COMPAT  = T    GGA compatible to vasp.4.4-vasp.4.6
   LMAXPAW     = -100 max onsite density
   LMAXMIX     =    4 max onsite mixed and CHGCAR
   VOSKOWN=      0    Vosko Wilk Nusair interpolation
   ROPT   =    0.00000   0.00000
 Ionic relaxation
   EDIFFG = -.1E-06   stopping-criterion for IOM
   NSW    =    200    number of steps for IOM
   NBLOCK =      1;   KBLOCK =    200    inner block; outer block 
   IBRION =      2    ionic relax: 0-MD 1-quasi-New 2-CG
   NFREE  =      1    steps in history (QN), initial steepest desc. (CG)
   ISIF   =      7    stress and relaxation
   IWAVPR =     11    prediction:  0-non 1-charg 2-wave 3-comb
   ISYM   =      2    0-nonsym 1-usesym 2-fastsym
   LCORR  =      T    Harris-Foulkes like correction to forces

   POTIM  = 0.5000    time-step for ionic-motion
   TEIN   =    0.0    initial temperature
   TEBEG  =    0.0;   TEEND  =   0.0 temperature during run
   SMASS  =  -3.00    Nose mass-parameter (am)
   estimated Nose-frequenzy (Omega)   =  0.10E-29 period in steps = 0.13E+47 mass=  -0.190E-26a.u.
   SCALEE = 1.0000    scale energy and forces
   NPACO  =    256;   APACO  = 10.0  distance and # of slots for P.C.
   PSTRESS=    0.0 pullay stress

  Mass of Ions in am
   POMASS = 207.20127.60
  Ionic Valenz
   ZVAL   =  14.00  6.00
  Atomic Wigner-Seitz radii
   RWIGS  =  -1.00 -1.00
  virtual crystal weights 
   VCA    =   1.00  1.00
   NELECT =     160.0000    total number of electrons
   NUPDOWN=      -1.0000    fix difference up-down

 DOS related values:
   EMIN   =  10.00;   EMAX   =-10.00  energy-range for DOS
   EFERMI =   0.00
   ISMEAR =     0;   SIGMA  =   0.01  broadening in eV -4-tet -1-fermi 0-gaus

 Electronic relaxation 2 (details)
   IALGO  =     68    algorithm
   LDIAG  =      T    sub-space diagonalisation (order eigenvalues)
   LSUBROT=      F    optimize rotation matrix (better conditioning)
   TURBO    =      0    0=normal 1=particle mesh
   IRESTART =      0    0=no restart 2=restart with 2 vectors
   NREBOOT  =      0    no. of reboots
   NMIN     =      0    reboot dimension
   EREF     =   0.00    reference energy to select bands
   IMIX   =      4    mixing-type and parameters
     AMIX     =   0.40;   BMIX     =  1.00
     AMIX_MAG =   1.60;   BMIX_MAG =  1.00
     AMIN     =   0.10
     WC   =   100.;   INIMIX=   1;  MIXPRE=   1;  MAXMIX= -45

 Intra band minimization:
   WEIMIN = 0.0010     energy-eigenvalue tresh-hold
   EBREAK =  0.26E-10  absolut break condition
   DEPER  =   0.30     relativ break condition  

   TIME   =   0.40     timestep for ELM

  volume/ion in A,a.u.               =      33.45       225.75
  Fermi-wavevector in a.u.,A,eV,Ry     =   1.094617  2.068526 16.302308  1.198186
  Thomas-Fermi vector in A             =   2.230925

 Write flags
   LWAVE        =      T    write WAVECAR
   LDOWNSAMPLE  =      F    k-point downsampling of WAVECAR
   LCHARG       =      T    write CHGCAR
   LVTOT        =      F    write LOCPOT, total local potential
   LVHAR        =      F    write LOCPOT, Hartree potential only
   LELF         =      F    write electronic localiz. function (ELF)
   LORBIT       =     11    0 simple, 1 ext, 2 COOP (PROOUT), +10 PAW based schemes


 Dipole corrections
   LMONO  =      F    monopole corrections only (constant potential shift)
   LDIPOL =      F    correct potential (dipole corrections)
   IDIPOL =      0    1-x, 2-y, 3-z, 4-all directions 
   EPSILON=  1.0000000 bulk dielectric constant

 Core level calculations are selected ICORELEVEL =  1
 Exchange correlation treatment:
   GGA     =    PS    GGA type
   LEXCH   =    14    internal setting for exchange type
   LIBXC   =     F    Libxc                    
   VOSKOWN =     0    Vosko Wilk Nusair interpolation
   LHFCALC =     F    Hartree Fock is set to
   LHFONE  =     F    Hartree Fock one center treatment
   AEXX    =    0.0000 exact exchange contribution

 Linear response parameters
   LEPSILON=     F    determine dielectric tensor
   LRPA    =     F    only Hartree local field effects (RPA)
   LNABLA  =     F    use nabla operator in PAW spheres
   LVEL    =     F    velocity operator in full k-point grid
   CSHIFT  =0.1000    complex shift for real part using Kramers Kronig
   OMEGAMAX=  -1.0    maximum frequency
   DEG_THRESHOLD= 0.2000000E-02 threshold for treating states as degnerate
   RTIME   =   -0.100 relaxation time in fs
  (WPLASMAI=    0.000 imaginary part of plasma frequency in eV, 0.658/RTIME)
   DFIELD  = 0.0000000 0.0000000 0.0000000 field for delta impulse in time

  Optional k-point grid parameters
   LKPOINTS_OPT  =     F    use optional k-point grid
   KPOINTS_OPT_MODE=     1    mode for optional k-point grid

 Orbital magnetization related:
   ORBITALMAG=     F  switch on orbital magnetization
   LCHIMAG   =     F  perturbation theory with respect to B field
   DQ        =  0.001000  dq finite difference perturbation B field
   LLRAUG    =     F  two centre corrections for induced B field



--------------------------------------------------------------------------------------------------------


 conjugate gradient relaxation of ions
 charge density and potential will be updated during run
 non-spin polarized calculation
 RMM-DIIS sequential band-by-band and
  variant of blocked Davidson during initial phase
 perform sub-space diagonalisation
    before iterative eigenvector-optimisation
 modified Broyden-mixing scheme, WC =      100.0
 initial mixing is a Kerker type mixing with AMIX =  0.4000 and BMIX =      1.0000
 Hartree-type preconditioning will be used
 using additional bands           16
 reciprocal scheme for non local part
 use partial core corrections
 calculate Harris-corrections to forces   (improved forces if not selfconsistent)
 use gradient corrections 
 use of overlap-Matrix (Vanderbilt PP)
 Gauss-broadening in eV      SIGMA  =   0.01


--------------------------------------------------------------------------------------------------------


  energy-cutoff  :      600.00
  volume of cell :      535.25
      direct lattice vectors                 reciprocal lattice vectors
     0.000000000  6.444304699  6.444304699    -0.077587889  0.077587889  0.077587889
     6.444304699  0.000000000  6.444304699     0.077587889 -0.077587889  0.077587889
     6.444304699  6.444304699  0.000000000     0.077587889  0.077587889 -0.077587889

  length of vectors
     9.113623106  9.113623106  9.113623106     0.134386166  0.134386166  0.134386166



 k-points in units of 2pi/SCALE and weight: Regular k-point mesh                    
   0.00000000  0.00000000  0.00000000       0.005
  -0.01293131  0.01293131  0.01293131       0.037
  -0.02586263  0.02586263  0.02586263       0.037
  -0.03879394  0.03879394  0.03879394       0.019
   0.00000000  0.00000000  0.02586263       0.028
  -0.01293131  0.01293131  0.03879394       0.111
  -0.02586263  0.02586263  0.05172526       0.111
   0.03879394 -0.03879394 -0.01293131       0.111
   0.02586263 -0.02586263  0.00000000       0.056
   0.00000000  0.00000000  0.05172526       0.028
  -0.01293131  0.01293131  0.06465657       0.111
   0.05172526 -0.05172526  0.00000000       0.056
   0.00000000  0.00000000  0.07758789       0.014
   0.00000000  0.02586263  0.05172526       0.111
   0.06465657 -0.03879394 -0.01293131       0.111
   0.07758789 -0.05172526  0.00000000       0.056

 k-points in reciprocal lattice and weights: Regular k-point mesh                    
   0.00000000  0.00000000  0.00000000       0.005
   0.16666667  0.00000000  0.00000000       0.037
   0.33333333  0.00000000  0.00000000       0.037
   0.50000000  0.00000000  0.00000000       0.019
   0.16666667  0.16666667  0.00000000       0.028
   0.33333333  0.16666667  0.00000000       0.111
   0.50000000  0.16666667  0.00000000       0.111
  -0.33333333  0.16666667  0.00000000       0.111
  -0.16666667  0.16666667  0.00000000       0.056
   0.33333333  0.33333333  0.00000000       0.028
   0.50000000  0.33333333  0.00000000       0.111
  -0.33333333  0.33333333  0.00000000       0.056
   0.50000000  0.50000000  0.00000000       0.014
   0.50000000  0.33333333  0.16666667       0.111
  -0.33333333  0.33333333  0.16666667       0.111
  -0.33333333  0.50000000  0.16666667       0.056

 position of ions in fractional coordinates (direct lattice) 
   0.25000000  0.25000000  0.25000000
   0.75000000  0.25000000  0.25000000
   0.25000000  0.75000000  0.25000000
   0.75000000  0.75000000  0.25000000
   0.25000000  0.25000000  0.75000000
   0.75000000  0.25000000  0.75000000
   0.25000000  0.75000000  0.75000000
   0.75000000  0.75000000  0.75000000
   0.00000000  0.00000000  0.00000000
   0.50000000  0.00000000  0.00000000
   0.00000000  0.50000000  0.00000000
   0.50000000  0.50000000  0.00000000
   0.00000000  0.00000000  0.50000000
   0.50000000  0.00000000  0.50000000
   0.00000000  0.50000000  0.50000000
   0.50000000  0.50000000  0.50000000

 position of ions in cartesian coordinates  (Angst):
   3.22215235  3.22215235  3.22215235
   3.22215235  6.44430470  6.44430470
   6.44430470  3.22215235  6.44430470
   6.44430470  6.44430470  9.66645705
   6.44430470  6.44430470  3.22215235
   6.44430470  9.66645705  6.44430470
   9.66645705  6.44430470  6.44430470
   9.66645705  9.66645705  9.66645705
   0.00000000  0.00000000  0.00000000
   0.00000000  3.22215235  3.22215235
   3.22215235  0.00000000  3.22215235
   3.22215235  3.22215235  6.44430470
   3.22215235  3.22215235  0.00000000
   3.22215235  6.44430470  3.22215235
   6.44430470  3.22215235  3.22215235
   6.44430470  6.44430470  6.44430470



--------------------------------------------------------------------------------------------------------


 k-point   1 :   0.0000 0.0000 0.0000  plane waves:   17933
 k-point   2 :   0.1667 0.0000 0.0000  plane waves:   17847
 k-point   3 :   0.3333 0.0000 0.0000  plane waves:   17832
 k-point   4 :   0.5000 0.0000 0.0000  plane waves:   17784
 k-point   5 :   0.1667 0.1667 0.0000  plane waves:   17878
 k-point   6 :   0.3333 0.1667 0.0000  plane waves:   17847
 k-point   7 :   0.5000 0.1667 0.0000  plane waves:   17886
 k-point   8 :  -0.3333 0.1667 0.0000  plane waves:   17883
 k-point   9 :  -0.1667 0.1667 0.0000  plane waves:   17824
 k-point  10 :   0.3333 0.3333 0.0000  plane waves:   17838
 k-point  11 :   0.5000 0.3333 0.0000  plane waves:   17842
 k-point  12 :  -0.3333 0.3333 0.0000  plane waves:   17912
 k-point  13 :   0.5000 0.5000 0.0000  plane waves:   17886
 k-point  14 :   0.5000 0.3333 0.1667  plane waves:   17827
 k-point  15 :  -0.3333 0.3333 0.1667  plane waves:   17866
 k-point  16 :  -0.3333 0.5000 0.1667  plane waves:   17882

 maximum and minimum number of plane-waves per node :      1140     1099

 maximum number of plane-waves:     17933
 maximum index in each direction: 
   IXMAX=   18   IYMAX=   18   IZMAX=   18
   IXMIN=  -18   IYMIN=  -18   IZMIN=  -18


 parallel 3D FFT for wavefunctions:
    minimum data exchange during FFTs selected (reduces bandwidth)
 parallel 3D FFT for charge:
    minimum data exchange during FFTs selected (reduces bandwidth)


 total amount of memory used by VASP MPI-rank0    49771. kBytes
=======================================================================

   base      :      30000. kBytes
   nonl-proj :       5486. kBytes
   fftplans  :       6553. kBytes
   grid      :       4179. kBytes
   one-center:         15. kBytes
   wavefun   :       3538. kBytes

     INWAV:  cpu time      0.0021: real time      0.0022
 Broyden mixing: mesh for mixing (old mesh)
   NGX = 37   NGY = 37   NGZ = 37
  (NGX  =160   NGY  =160   NGZ  =160)
  gives a total of  50653 points

 initial charge density was supplied:
 charge density of overlapping atoms calculated
 number of electron     160.0000000 magnetization 
 keeping initial charge density in first step


--------------------------------------------------------------------------------------------------------


 Maximum index for augmentation-charges         6343 (set IRDMAX)


--------------------------------------------------------------------------------------------------------


 First call to EWALD:  gamma=   0.218
 Maximum number of real-space cells 3x 3x 3
 Maximum number of reciprocal cells 3x 3x 3

    FEWALD:  cpu time      0.0059: real time      0.0061
    OFIELD:  cpu time      0.0000: real time      0.0000

  ML FORCE on cell =-STRESS in cart. coord. units (eV/cell)
  Direction    XX          YY          ZZ          XY          YZ          ZX
  --------------------------------------------------------------------------------------
  Total:      0.00000     0.00000     0.00000     0.00000     0.00000     0.00000
  in kB       0.00000     0.00000     0.00000     0.00000     0.00000     0.00000
  external pressure =        0.00 kB  Pullay stress =        0.00 kB

  kinetic pressure (ideal gas correction) =      0.00 kB
  total pressure  =      0.00 kB
  Total+kin.     0.000       0.000       0.000       0.000       0.000       0.000
  volume of cell :      535.25
      direct lattice vectors                 reciprocal lattice vectors
     0.000000000  6.444304699  6.444304699    -0.077587889  0.077587889  0.077587889
     6.444304699  0.000000000  6.444304699     0.077587889 -0.077587889  0.077587889
     6.444304699  6.444304699  0.000000000     0.077587889  0.077587889 -0.077587889

  length of vectors
     9.113623106  9.113623106  9.113623106     0.134386166  0.134386166  0.134386166


  POSITION                                       TOTAL-FORCE (eV/Angst) (ML)
 -----------------------------------------------------------------------------------
      3.22215      3.22215      3.22215         0.000000      0.000000      0.000000
      3.22215      6.44430      6.44430         0.000000      0.000000      0.000000
      6.44430      3.22215      6.44430         0.000000      0.000000      0.000000
      6.44430      6.44430      9.66646         0.000000      0.000000      0.000000
      6.44430      6.44430      3.22215         0.000000      0.000000      0.000000
      6.44430      9.66646      6.44430         0.000000      0.000000      0.000000
      9.66646      6.44430      6.44430         0.000000      0.000000      0.000000
      9.66646      9.66646      9.66646         0.000000      0.000000      0.000000
      0.00000      0.00000      0.00000         0.000000      0.000000      0.000000
      0.00000      3.22215      3.22215         0.000000      0.000000      0.000000
      3.22215      0.00000      3.22215         0.000000      0.000000      0.000000
      3.22215      3.22215      6.44430         0.000000      0.000000      0.000000
      3.22215      3.22215      0.00000         0.000000      0.000000      0.000000
      3.22215      6.44430      3.22215         0.000000      0.000000      0.000000
      6.44430      3.22215      3.22215         0.000000      0.000000      0.000000
      6.44430      6.44430      6.44430         0.000000      0.000000      0.000000
 -----------------------------------------------------------------------------------
    total drift:                                0.000000      0.000000      0.000000


--------------------------------------------------------------------------------------------------------



  ML FREE ENERGIE OF THE ION-ELECTRON SYSTEM (eV)
  ---------------------------------------------------
  free  energy ML TOTEN  =         0.00000000 eV

  ML energy  without entropy=        0.00000000  ML energy(sigma->0) =        0.00000000



--------------------------------------- Iteration      1(   1)  ---------------------------------------


    POTLOK:  cpu time      0.0530: real time      0.1356
    SETDIJ:  cpu time      0.2432: real time      0.2436
     EDDAV:  cpu time      1.7578: real time      1.7636
       DOS:  cpu time      0.0036: real time      0.0036
    --------------------------------------------
      LOOP:  cpu time      2.0575: real time      2.1465

 eigenvalue-minimisations  :  3072
 total energy-change (2. order) : 0.1879475E+04  (-0.7387566E+04)
 number of electron     160.0000000 magnetization 
 augmentation part      160.0000000 magnetization 

 Free energy of the ion-electron system (eV)
  ---------------------------------------------------
  alpha Z        PSCENC =       290.60389976
  Ewald energy   TEWEN  =    -11143.56050388
  -Hartree energ DENC   =     -4024.08968959
  -exchange      EXHF   =         0.00000000
  -V(xc)+E(xc)   XCENC  =        91.56847891
  PAW double counting   =     13132.28373248   -12699.49664494
  entropy T*S    EENTRO =        -0.00054347
  eigenvalues    EBANDS =      1148.09060106
  atomic energy  EATOM  =     15084.07529148
  Solvation  Ediel_sol  =         0.00000000
  ---------------------------------------------------
  free energy    TOTEN  =      1879.47462181 eV

  energy without entropy =     1879.47516528  energy(sigma->0) =     1879.47489354


--------------------------------------------------------------------------------------------------------




--------------------------------------- Iteration      1(   2)  ---------------------------------------


     EDDAV:  cpu time      1.7192: real time      1.7319
       DOS:  cpu time      0.0010: real time      0.0010
    --------------------------------------------
      LOOP:  cpu time      1.7202: real time      1.7330

 eigenvalue-minimisations  :  3080
 total energy-change (2. order) :-0.1667284E+04  (-0.1624464E+04)
 number of electron     160.0000000 magnetization 
 augmentation part      160.0000000 magnetization 

 Free energy of the ion-electron system (eV)
  ---------------------------------------------------
  alpha Z        PSCENC =       290.60389976
  Ewald energy   TEWEN  =    -11143.56050388
  -Hartree energ DENC   =     -4024.08968959
  -exchange      EXHF   =         0.00000000
  -V(xc)+E(xc)   XCENC  =        91.56847891
  PAW double counting   =     13132.28373248   -12699.49664494
  entropy T*S    EENTRO =        -0.00013997
  eigenvalues    EBANDS =      -519.19366678
  atomic energy  EATOM  =     15084.07529148
  Solvation  Ediel_sol  =         0.00000000
  ---------------------------------------------------
  free energy    TOTEN  =       212.19075748 eV

  energy without entropy =      212.19089744  energy(sigma->0) =      212.19082746


--------------------------------------------------------------------------------------------------------




--------------------------------------- Iteration      1(   3)  ---------------------------------------


     EDDAV:  cpu time      1.9745: real time      1.9912
       DOS:  cpu time      0.0007: real time      0.0007
    --------------------------------------------
      LOOP:  cpu time      1.9752: real time      1.9919

 eigenvalue-minimisations  :  3712
 total energy-change (2. order) :-0.2585728E+03  (-0.2444772E+03)
 number of electron     160.0000000 magnetization 
 augmentation part      160.0000000 magnetization 

 Free energy of the ion-electron system (eV)
  ---------------------------------------------------
  alpha Z        PSCENC =       290.60389976
  Ewald energy   TEWEN  =    -11143.56050388
  -Hartree energ DENC   =     -4024.08968959
  -exchange      EXHF   =         0.00000000
  -V(xc)+E(xc)   XCENC  =        91.56847891
  PAW double counting   =     13132.28373248   -12699.49664494
  entropy T*S    EENTRO =        -0.00000000
  eigenvalues    EBANDS =      -777.76656782
  atomic energy  EATOM  =     15084.07529148
  Solvation  Ediel_sol  =         0.00000000
  ---------------------------------------------------
  free energy    TOTEN  =       -46.38200359 eV

  energy without entropy =      -46.38200359  energy(sigma->0) =      -46.38200359


--------------------------------------------------------------------------------------------------------




--------------------------------------- Iteration      1(   4)  ---------------------------------------


     EDDAV:  cpu time      2.0086: real time      2.0278
       DOS:  cpu time      0.0030: real time      0.0030
    --------------------------------------------
      LOOP:  cpu time      2.0117: real time      2.0308

 eigenvalue-minimisations  :  3680
 total energy-change (2. order) :-0.1966102E+02  (-0.1928278E+02)
 number of electron     160.0000000 magnetization 
 augmentation part      160.0000000 magnetization 

 Free energy of the ion-electron system (eV)
  ---------------------------------------------------
  alpha Z        PSCENC =       290.60389976
  Ewald energy   TEWEN  =    -11143.56050388
  -Hartree energ DENC   =     -4024.08968959
  -exchange      EXHF   =         0.00000000
  -V(xc)+E(xc)   XCENC  =        91.56847891
  PAW double counting   =     13132.28373248   -12699.49664494
  entropy T*S    EENTRO =        -0.00000000
  eigenvalues    EBANDS =      -797.42758430
  atomic energy  EATOM  =     15084.07529148
  Solvation  Ediel_sol  =         0.00000000
  ---------------------------------------------------
  free energy    TOTEN  =       -66.04302008 eV

  energy without entropy =      -66.04302008  energy(sigma->0) =      -66.04302008


--------------------------------------------------------------------------------------------------------




--------------------------------------- Iteration      1(   5)  ---------------------------------------


     EDDAV:  cpu time      2.0087: real time      2.0238
       DOS:  cpu time      0.0008: real time      0.0008
    CHARGE:  cpu time      0.6070: real time      0.6079
    MIXING:  cpu time      0.0105: real time      0.0107
    --------------------------------------------
      LOOP:  cpu time      2.6271: real time      2.6433

 eigenvalue-minimisations  :  3816
 total energy-change (2. order) :-0.9333615E+00  (-0.9300849E+00)
 number of electron     160.0000002 magnetization 
 augmentation part       34.6885820 magnetization 

 Broyden mixing:
  rms(total) = 0.98570E+00    rms(broyden)= 0.98570E+00
  rms(prec ) = 0.11944E+01
  weight for this iteration     100.00

 Free energy of the ion-electron system (eV)
  ---------------------------------------------------
  alpha Z        PSCENC =       290.60389976
  Ewald energy   TEWEN  =    -11143.56050388
  -Hartree energ DENC   =     -4024.08968959
  -exchange      EXHF   =         0.00000000
  -V(xc)+E(xc)   XCENC  =        91.56847891
  PAW double counting   =     13132.28373248   -12699.49664494
  entropy T*S    EENTRO =        -0.00000000
  eigenvalues    EBANDS =      -798.36094583
  atomic energy  EATOM  =     15084.07529148
  Solvation  Ediel_sol  =         0.00000000
  ---------------------------------------------------
  free energy    TOTEN  =       -66.97638160 eV

  energy without entropy =      -66.97638160  energy(sigma->0) =      -66.97638160


--------------------------------------------------------------------------------------------------------




--------------------------------------- Iteration      1(   6)  ---------------------------------------


    POTLOK:  cpu time      0.0557: real time      0.0710
    SETDIJ:  cpu time      0.2390: real time      0.2390
    EDDIAG:  cpu time      0.4683: real time      0.4695
  RMM-DIIS:  cpu time      1.5713: real time      1.5728
    ORTHCH:  cpu time      0.0422: real time      0.0422
       DOS:  cpu time      0.0007: real time      0.0007
    CHARGE:  cpu time      0.5932: real time      0.5938
    MIXING:  cpu time      0.0039: real time      0.0039
    --------------------------------------------
      LOOP:  cpu time      2.9742: real time      2.9928

 eigenvalue-minimisations  :  3123
 total energy-change (2. order) : 0.8705131E+00  (-0.1648247E+00)
 number of electron     160.0000002 magnetization 
 augmentation part       34.8916252 magnetization 

 Broyden mixing:
  rms(total) = 0.57178E+00    rms(broyden)= 0.57178E+00
  rms(prec ) = 0.63885E+00
  weight for this iteration     100.00

 eigenvalues of (default mixing * dielectric matrix)
  average eigenvalue GAMMA=   2.3013
  2.3013

 Free energy of the ion-electron system (eV)
  ---------------------------------------------------
  alpha Z        PSCENC =       290.60389976
  Ewald energy   TEWEN  =    -11143.56050388
  -Hartree energ DENC   =     -4001.67982445
  -exchange      EXHF   =         0.00000000
  -V(xc)+E(xc)   XCENC  =        91.58154093
  PAW double counting   =     13693.56296609   -13257.42759836
  entropy T*S    EENTRO =        -0.00000000
  eigenvalues    EBANDS =      -823.26164006
  atomic energy  EATOM  =     15084.07529148
  Solvation  Ediel_sol  =         0.00000000
  ---------------------------------------------------
  free energy    TOTEN  =       -66.10586849 eV

  energy without entropy =      -66.10586849  energy(sigma->0) =      -66.10586849


--------------------------------------------------------------------------------------------------------




--------------------------------------- Iteration      1(   7)  ---------------------------------------


    POTLOK:  cpu time      0.0730: real time      0.0732
    SETDIJ:  cpu time      0.2390: real time      0.2390
    EDDIAG:  cpu time      0.4613: real time      0.4616
  RMM-DIIS:  cpu time      1.6144: real time      1.6149
    ORTHCH:  cpu time      0.0421: real time      0.0421
       DOS:  cpu time      0.0007: real time      0.0007
    CHARGE:  cpu time      0.5927: real time      0.5932
    MIXING:  cpu time      0.0022: real time      0.0022
    --------------------------------------------
      LOOP:  cpu time      3.0253: real time      3.0268

 eigenvalue-minimisations  :  3272
 total energy-change (2. order) :-0.2828339E-02  (-0.1825500E+00)
 number of electron     160.0000002 magnetization 
 augmentation part       35.0474691 magnetization 

 Broyden mixing:
  rms(total) = 0.15327E+00    rms(broyden)= 0.15327E+00
  rms(prec ) = 0.19449E+00
  weight for this iteration     100.00

 eigenvalues of (default mixing * dielectric matrix)
  average eigenvalue GAMMA=   2.0529
  1.5404  2.5654

 Free energy of the ion-electron system (eV)
  ---------------------------------------------------
  alpha Z        PSCENC =       290.60389976
  Ewald energy   TEWEN  =    -11143.56050388
  -Hartree energ DENC   =     -3986.11664288
  -exchange      EXHF   =         0.00000000
  -V(xc)+E(xc)   XCENC  =        91.81187806
  PAW double counting   =     14535.91077721   -14098.08650564
  entropy T*S    EENTRO =        -0.00000000
  eigenvalues    EBANDS =      -840.74689095
  atomic energy  EATOM  =     15084.07529148
  Solvation  Ediel_sol  =         0.00000000
  ---------------------------------------------------
  free energy    TOTEN  =       -66.10869683 eV

  energy without entropy =      -66.10869683  energy(sigma->0) =      -66.10869683


--------------------------------------------------------------------------------------------------------




--------------------------------------- Iteration      1(   8)  ---------------------------------------


    POTLOK:  cpu time      0.0569: real time      0.0748
    SETDIJ:  cpu time      0.2395: real time      0.2395
    EDDIAG:  cpu time      0.4614: real time      0.4616
  RMM-DIIS:  cpu time      1.5872: real time      1.5876
    ORTHCH:  cpu time      0.0422: real time      0.0422
       DOS:  cpu time      0.0007: real time      0.0007
    CHARGE:  cpu time      0.5923: real time      0.5930
    MIXING:  cpu time      0.0020: real time      0.0020
    --------------------------------------------
      LOOP:  cpu time      2.9821: real time      3.0014

 eigenvalue-minimisations  :  3171
 total energy-change (2. order) : 0.2151928E-01  (-0.3818087E-01)
 number of electron     160.0000002 magnetization 
 augmentation part       34.8839858 magnetization 

 Broyden mixing:
  rms(total) = 0.46405E-01    rms(broyden)= 0.46405E-01
  rms(prec ) = 0.80621E-01
  weight for this iteration     100.00

 eigenvalues of (default mixing * dielectric matrix)
  average eigenvalue GAMMA=   1.7500
  2.3545  1.4477  1.4477

 Free energy of the ion-electron system (eV)
  ---------------------------------------------------
  alpha Z        PSCENC =       290.60389976
  Ewald energy   TEWEN  =    -11143.56050388
  -Hartree energ DENC   =     -3996.59299544
  -exchange      EXHF   =         0.00000000
  -V(xc)+E(xc)   XCENC  =        92.12365385
  PAW double counting   =     14894.40888555   -14459.33047355
  entropy T*S    EENTRO =        -0.00000000
  eigenvalues    EBANDS =      -827.81493531
  atomic energy  EATOM  =     15084.07529148
  Solvation  Ediel_sol  =         0.00000000
  ---------------------------------------------------
  free energy    TOTEN  =       -66.08717755 eV

  energy without entropy =      -66.08717755  energy(sigma->0) =      -66.08717755


--------------------------------------------------------------------------------------------------------




--------------------------------------- Iteration      1(   9)  ---------------------------------------


    POTLOK:  cpu time      0.0566: real time      0.0745
    SETDIJ:  cpu time      0.2400: real time      0.2400
    EDDIAG:  cpu time      0.4621: real time      0.4624
  RMM-DIIS:  cpu time      1.7259: real time      1.7264
    ORTHCH:  cpu time      0.0422: real time      0.0422
       DOS:  cpu time      0.0007: real time      0.0007
    CHARGE:  cpu time      0.5931: real time      0.5936
    MIXING:  cpu time      0.0017: real time      0.0017
    --------------------------------------------
      LOOP:  cpu time      3.1223: real time      3.1415

 eigenvalue-minimisations  :  3498
 total energy-change (2. order) : 0.1309178E-01  (-0.8820692E-02)
 number of electron     160.0000002 magnetization 
 augmentation part       34.9565039 magnetization 

 Broyden mixing:
  rms(total) = 0.35218E-01    rms(broyden)= 0.35218E-01
  rms(prec ) = 0.41301E-01
  weight for this iteration     100.00

 eigenvalues of (default mixing * dielectric matrix)
  average eigenvalue GAMMA=   1.6940
  2.5460  1.7879  1.7879  0.6543

 Free energy of the ion-electron system (eV)
  ---------------------------------------------------
  alpha Z        PSCENC =       290.60389976
  Ewald energy   TEWEN  =    -11143.56050388
  -Hartree energ DENC   =     -3990.10901779
  -exchange      EXHF   =         0.00000000
  -V(xc)+E(xc)   XCENC  =        91.99475352
  PAW double counting   =     14855.56331267   -14419.39811903
  entropy T*S    EENTRO =        -0.00000000
  eigenvalues    EBANDS =      -835.24370250
  atomic energy  EATOM  =     15084.07529148
  Solvation  Ediel_sol  =         0.00000000
  ---------------------------------------------------
  free energy    TOTEN  =       -66.07408577 eV

  energy without entropy =      -66.07408577  energy(sigma->0) =      -66.07408577


--------------------------------------------------------------------------------------------------------




--------------------------------------- Iteration      1(  10)  ---------------------------------------


    POTLOK:  cpu time      0.0570: real time      0.0743
    SETDIJ:  cpu time      0.2400: real time      0.2400
    EDDIAG:  cpu time      0.4604: real time      0.4606
  RMM-DIIS:  cpu time      1.8471: real time      1.8480
    ORTHCH:  cpu time      0.0423: real time      0.0423
       DOS:  cpu time      0.0007: real time      0.0007
    CHARGE:  cpu time      0.5939: real time      0.5940
    MIXING:  cpu time      0.0021: real time      0.0021
    --------------------------------------------
      LOOP:  cpu time      3.2435: real time      3.2620

 eigenvalue-minimisations  :  3609
 total energy-change (2. order) :-0.2983332E-02  (-0.2805187E-02)
 number of electron     160.0000002 magnetization 
 augmentation part       34.9646103 magnetization 

 Broyden mixing:
  rms(total) = 0.24207E-01    rms(broyden)= 0.24207E-01
  rms(prec ) = 0.38682E-01
  weight for this iteration     100.00

 eigenvalues of (default mixing * dielectric matrix)
  average eigenvalue GAMMA=   1.3827
  2.5187  1.8044  1.8044  0.5999  0.1861

 Free energy of the ion-electron system (eV)
  ---------------------------------------------------
  alpha Z        PSCENC =       290.60389976
  Ewald energy   TEWEN  =    -11143.56050388
  -Hartree energ DENC   =     -3989.44483017
  -exchange      EXHF   =         0.00000000
  -V(xc)+E(xc)   XCENC  =        91.99828849
  PAW double counting   =     14909.47799916   -14473.39034438
  entropy T*S    EENTRO =        -0.00000000
  eigenvalues    EBANDS =      -835.83686956
  atomic energy  EATOM  =     15084.07529148
  Solvation  Ediel_sol  =         0.00000000
  ---------------------------------------------------
  free energy    TOTEN  =       -66.07706910 eV

  energy without entropy =      -66.07706910  energy(sigma->0) =      -66.07706910


--------------------------------------------------------------------------------------------------------




--------------------------------------- Iteration      1(  11)  ---------------------------------------


    POTLOK:  cpu time      0.0723: real time      0.0725
    SETDIJ:  cpu time      0.2392: real time      0.2393
    EDDIAG:  cpu time      0.4617: real time      0.4623
  RMM-DIIS:  cpu time      2.1265: real time      2.1275
    ORTHCH:  cpu time      0.0421: real time      0.0421
       DOS:  cpu time      0.0007: real time      0.0007
    CHARGE:  cpu time      0.5927: real time      0.5936
    MIXING:  cpu time      0.0020: real time      0.0020
    --------------------------------------------
      LOOP:  cpu time      3.5372: real time      3.5399

 eigenvalue-minimisations  :  4291
 total energy-change (2. order) : 0.1146744E-03  (-0.6448470E-03)
 number of electron     160.0000002 magnetization 
 augmentation part       34.9509159 magnetization 

 Broyden mixing:
  rms(total) = 0.24093E-01    rms(broyden)= 0.24093E-01
  rms(prec ) = 0.35463E-01
  weight for this iteration     100.00

 eigenvalues of (default mixing * dielectric matrix)
  average eigenvalue GAMMA=   1.5540
  2.2719  2.6124  1.6711  1.6711  0.7441  0.3533

 Free energy of the ion-electron system (eV)
  ---------------------------------------------------
  alpha Z        PSCENC =       290.60389976
  Ewald energy   TEWEN  =    -11143.56050388
  -Hartree energ DENC   =     -3989.77551541
  -exchange      EXHF   =         0.00000000
  -V(xc)+E(xc)   XCENC  =        92.00490987
  PAW double counting   =     14909.40060520   -14473.34943739
  entropy T*S    EENTRO =        -0.00000000
  eigenvalues    EBANDS =      -835.47620407
  atomic energy  EATOM  =     15084.07529148
  Solvation  Ediel_sol  =         0.00000000
  ---------------------------------------------------
  free energy    TOTEN  =       -66.07695443 eV

  energy without entropy =      -66.07695443  energy(sigma->0) =      -66.07695443


--------------------------------------------------------------------------------------------------------




--------------------------------------- Iteration      1(  12)  ---------------------------------------


    POTLOK:  cpu time      0.0583: real time      0.0722
    SETDIJ:  cpu time      0.2392: real time      0.2392
    EDDIAG:  cpu time      0.4614: real time      0.4614
  RMM-DIIS:  cpu time      1.6169: real time      1.6177
    ORTHCH:  cpu time      0.0423: real time      0.0423
       DOS:  cpu time      0.0006: real time      0.0006
    CHARGE:  cpu time      0.5932: real time      0.5940
    MIXING:  cpu time      0.0017: real time      0.0017
    --------------------------------------------
      LOOP:  cpu time      3.0135: real time      3.0290

 eigenvalue-minimisations  :  3198
 total energy-change (2. order) :-0.1688957E-02  (-0.1656479E-03)
 number of electron     160.0000002 magnetization 
 augmentation part       34.9574251 magnetization 

 Broyden mixing:
  rms(total) = 0.34059E-01    rms(broyden)= 0.34059E-01
  rms(prec ) = 0.49597E-01
  weight for this iteration     100.00

 eigenvalues of (default mixing * dielectric matrix)
  average eigenvalue GAMMA=   1.4989
  2.7498  2.1528  2.1528  0.9427  1.0717  1.0717  0.3504

 Free energy of the ion-electron system (eV)
  ---------------------------------------------------
  alpha Z        PSCENC =       290.60389976
  Ewald energy   TEWEN  =    -11143.56050388
  -Hartree energ DENC   =     -3989.19944328
  -exchange      EXHF   =         0.00000000
  -V(xc)+E(xc)   XCENC  =        91.99464859
  PAW double counting   =     14899.38830611   -14463.23923040
  entropy T*S    EENTRO =        -0.00000000
  eigenvalues    EBANDS =      -836.14161177
  atomic energy  EATOM  =     15084.07529148
  Solvation  Ediel_sol  =         0.00000000
  ---------------------------------------------------
  free energy    TOTEN  =       -66.07864339 eV

  energy without entropy =      -66.07864339  energy(sigma->0) =      -66.07864339


--------------------------------------------------------------------------------------------------------




--------------------------------------- Iteration      1(  13)  ---------------------------------------


    POTLOK:  cpu time      0.0582: real time      0.0750
    SETDIJ:  cpu time      0.2394: real time      0.2395
    EDDIAG:  cpu time      0.4610: real time      0.4613
  RMM-DIIS:  cpu time      2.0118: real time      2.0129
    ORTHCH:  cpu time      0.0422: real time      0.0422
       DOS:  cpu time      0.0006: real time      0.0006
    CHARGE:  cpu time      0.5929: real time      0.5929
    MIXING:  cpu time      0.0023: real time      0.0023
    --------------------------------------------
      LOOP:  cpu time      3.4085: real time      3.4267

 eigenvalue-minimisations  :  3977
 total energy-change (2. order) : 0.3440702E-02  (-0.1260397E-02)
 number of electron     160.0000002 magnetization 
 augmentation part       34.9325941 magnetization 

 Broyden mixing:
  rms(total) = 0.58476E-02    rms(broyden)= 0.58476E-02
  rms(prec ) = 0.65701E-02
  weight for this iteration     100.00

 eigenvalues of (default mixing * dielectric matrix)
  average eigenvalue GAMMA=   1.3321
  2.7806  2.1031  2.1031  1.0026  1.0657  1.0657  0.3562  0.1795

 Free energy of the ion-electron system (eV)
  ---------------------------------------------------
  alpha Z        PSCENC =       290.60389976
  Ewald energy   TEWEN  =    -11143.56050388
  -Hartree energ DENC   =     -3991.45032774
  -exchange      EXHF   =         0.00000000
  -V(xc)+E(xc)   XCENC  =        92.04311954
  PAW double counting   =     14946.18919745   -14510.43272150
  entropy T*S    EENTRO =        -0.00000000
  eigenvalues    EBANDS =      -833.54315779
  atomic energy  EATOM  =     15084.07529148
  Solvation  Ediel_sol  =         0.00000000
  ---------------------------------------------------
  free energy    TOTEN  =       -66.07520269 eV

  energy without entropy =      -66.07520269  energy(sigma->0) =      -66.07520269


--------------------------------------------------------------------------------------------------------




--------------------------------------- Iteration      1(  14)  ---------------------------------------


    POTLOK:  cpu time      0.0573: real time      0.0757
    SETDIJ:  cpu time      0.2392: real time      0.2393
    EDDIAG:  cpu time      0.4622: real time      0.4630
  RMM-DIIS:  cpu time      1.5655: real time      1.5663
    ORTHCH:  cpu time      0.0423: real time      0.0423
       DOS:  cpu time      0.0007: real time      0.0007
    CHARGE:  cpu time      0.5936: real time      0.5936
    MIXING:  cpu time      0.0020: real time      0.0020
    --------------------------------------------
      LOOP:  cpu time      2.9628: real time      2.9830

 eigenvalue-minimisations  :  3145
 total energy-change (2. order) :-0.5223097E-04  (-0.6873854E-04)
 number of electron     160.0000002 magnetization 
 augmentation part       34.9298895 magnetization 

 Broyden mixing:
  rms(total) = 0.63477E-02    rms(broyden)= 0.63477E-02
  rms(prec ) = 0.69165E-02
  weight for this iteration     100.00

 eigenvalues of (default mixing * dielectric matrix)
  average eigenvalue GAMMA=   1.2271
  2.8163  2.1273  2.1273  1.0872  1.0872  0.9329  0.3744  0.3416  0.1497

 Free energy of the ion-electron system (eV)
  ---------------------------------------------------
  alpha Z        PSCENC =       290.60389976
  Ewald energy   TEWEN  =    -11143.56050388
  -Hartree energ DENC   =     -3991.49970491
  -exchange      EXHF   =         0.00000000
  -V(xc)+E(xc)   XCENC  =        92.04529305
  PAW double counting   =     14945.70258174   -14509.93948435
  entropy T*S    EENTRO =        -0.00000000
  eigenvalues    EBANDS =      -833.50262780
  atomic energy  EATOM  =     15084.07529148
  Solvation  Ediel_sol  =         0.00000000
  ---------------------------------------------------
  free energy    TOTEN  =       -66.07525492 eV

  energy without entropy =      -66.07525492  energy(sigma->0) =      -66.07525492


--------------------------------------------------------------------------------------------------------




--------------------------------------- Iteration      1(  15)  ---------------------------------------


    POTLOK:  cpu time      0.0556: real time      0.0739
    SETDIJ:  cpu time      0.2396: real time      0.2396
    EDDIAG:  cpu time      0.4609: real time      0.4612
  RMM-DIIS:  cpu time      2.0351: real time      2.0361
    ORTHCH:  cpu time      0.0497: real time      0.0497
       DOS:  cpu time      0.0008: real time      0.0008
    CHARGE:  cpu time      0.6120: real time      0.6133
    MIXING:  cpu time      0.0019: real time      0.0019
    --------------------------------------------
      LOOP:  cpu time      3.4556: real time      3.4765

 eigenvalue-minimisations  :  3930
 total energy-change (2. order) :-0.3887599E-04  (-0.2588977E-04)
 number of electron     160.0000002 magnetization 
 augmentation part       34.9283045 magnetization 

 Broyden mixing:
  rms(total) = 0.91630E-02    rms(broyden)= 0.91630E-02
  rms(prec ) = 0.10221E-01
  weight for this iteration     100.00

 eigenvalues of (default mixing * dielectric matrix)
  average eigenvalue GAMMA=   1.1747
  2.8210  2.1357  2.1357  1.0862  1.0862  0.9530  0.4450  0.3652  0.3652  0.3540

 Free energy of the ion-electron system (eV)
  ---------------------------------------------------
  alpha Z        PSCENC =       290.60389976
  Ewald energy   TEWEN  =    -11143.56050388
  -Hartree energ DENC   =     -3991.64264502
  -exchange      EXHF   =         0.00000000
  -V(xc)+E(xc)   XCENC  =        92.04993637
  PAW double counting   =     14950.84123863   -14515.09088334
  entropy T*S    EENTRO =        -0.00000000
  eigenvalues    EBANDS =      -833.35162779
  atomic energy  EATOM  =     15084.07529148
  Solvation  Ediel_sol  =         0.00000000
  ---------------------------------------------------
  free energy    TOTEN  =       -66.07529379 eV

  energy without entropy =      -66.07529379  energy(sigma->0) =      -66.07529379


--------------------------------------------------------------------------------------------------------




--------------------------------------- Iteration      1(  16)  ---------------------------------------


    POTLOK:  cpu time      0.0559: real time      0.0744
    SETDIJ:  cpu time      0.2401: real time      0.2401
    EDDIAG:  cpu time      0.4626: real time      0.4626
  RMM-DIIS:  cpu time      2.2235: real time      2.2252
    ORTHCH:  cpu time      0.0423: real time      0.0423
       DOS:  cpu time      0.0007: real time      0.0007
    CHARGE:  cpu time      0.5935: real time      0.5935
    MIXING:  cpu time      0.0022: real time      0.0022
    --------------------------------------------
      LOOP:  cpu time      3.6208: real time      3.6411

 eigenvalue-minimisations  :  4471
 total energy-change (2. order) : 0.7039340E-05  (-0.3862346E-05)
 number of electron     160.0000002 magnetization 
 augmentation part       34.9283804 magnetization 

 Broyden mixing:
  rms(total) = 0.87396E-02    rms(broyden)= 0.87396E-02
  rms(prec ) = 0.97382E-02
  weight for this iteration     100.00

 eigenvalues of (default mixing * dielectric matrix)
  average eigenvalue GAMMA=   1.3090
  1.7085  2.8965  2.1748  2.1748  1.2874  0.6815  0.6815  0.9287  0.7562  0.7562
  0.3524

 Free energy of the ion-electron system (eV)
  ---------------------------------------------------
  alpha Z        PSCENC =       290.60389976
  Ewald energy   TEWEN  =    -11143.56050388
  -Hartree energ DENC   =     -3991.59724299
  -exchange      EXHF   =         0.00000000
  -V(xc)+E(xc)   XCENC  =        92.04788150
  PAW double counting   =     14947.86416397   -14512.10930911
  entropy T*S    EENTRO =        -0.00000000
  eigenvalues    EBANDS =      -833.39946749
  atomic energy  EATOM  =     15084.07529148
  Solvation  Ediel_sol  =         0.00000000
  ---------------------------------------------------
  free energy    TOTEN  =       -66.07528675 eV

  energy without entropy =      -66.07528675  energy(sigma->0) =      -66.07528675


--------------------------------------------------------------------------------------------------------




--------------------------------------- Iteration      1(  17)  ---------------------------------------


    POTLOK:  cpu time      0.0571: real time      0.0723
    SETDIJ:  cpu time      0.2387: real time      0.2397
    EDDIAG:  cpu time      0.4625: real time      0.4626
  RMM-DIIS:  cpu time      1.9156: real time      1.9167
    ORTHCH:  cpu time      0.0423: real time      0.0423
       DOS:  cpu time      0.0007: real time      0.0007
    CHARGE:  cpu time      0.5937: real time      0.5945
    MIXING:  cpu time      0.0015: real time      0.0015
    --------------------------------------------
      LOOP:  cpu time      3.3120: real time      3.3302

 eigenvalue-minimisations  :  3751
 total energy-change (2. order) :-0.1095397E-03  (-0.1704531E-04)
 number of electron     160.0000002 magnetization 
 augmentation part       34.9258626 magnetization 

 Broyden mixing:
  rms(total) = 0.16159E-01    rms(broyden)= 0.16159E-01
  rms(prec ) = 0.17979E-01
  weight for this iteration     100.00

 eigenvalues of (default mixing * dielectric matrix)
  average eigenvalue GAMMA=   1.3970
  2.1202  2.1202  2.7574  2.2495  1.6851  1.6851  0.9024  0.8130  0.8130  0.6331
  0.6331  0.3524

 Free energy of the ion-electron system (eV)
  ---------------------------------------------------
  alpha Z        PSCENC =       290.60389976
  Ewald energy   TEWEN  =    -11143.56050388
  -Hartree energ DENC   =     -3991.86749682
  -exchange      EXHF   =         0.00000000
  -V(xc)+E(xc)   XCENC  =        92.05798221
  PAW double counting   =     14960.38806134   -14524.66715754
  entropy T*S    EENTRO =        -0.00000000
  eigenvalues    EBANDS =      -833.10547285
  atomic energy  EATOM  =     15084.07529148
  Solvation  Ediel_sol  =         0.00000000
  ---------------------------------------------------
  free energy    TOTEN  =       -66.07539629 eV

  energy without entropy =      -66.07539629  energy(sigma->0) =      -66.07539629


--------------------------------------------------------------------------------------------------------




--------------------------------------- Iteration      1(  18)  ---------------------------------------


    POTLOK:  cpu time      0.0575: real time      0.0745
    SETDIJ:  cpu time      0.2397: real time      0.2397
    EDDIAG:  cpu time      0.4630: real time      0.4630
  RMM-DIIS:  cpu time      2.0017: real time      2.0026
    ORTHCH:  cpu time      0.0423: real time      0.0423
       DOS:  cpu time      0.0007: real time      0.0007
    CHARGE:  cpu time      0.5942: real time      0.5949
    MIXING:  cpu time      0.0023: real time      0.0023
    --------------------------------------------
      LOOP:  cpu time      3.4013: real time      3.4201

 eigenvalue-minimisations  :  3931
 total energy-change (2. order) : 0.1484030E-03  (-0.3031947E-04)
 number of electron     160.0000002 magnetization 
 augmentation part       34.9291092 magnetization 

 Broyden mixing:
  rms(total) = 0.38661E-02    rms(broyden)= 0.38660E-02
  rms(prec ) = 0.46165E-02
  weight for this iteration     100.00

 eigenvalues of (default mixing * dielectric matrix)
  average eigenvalue GAMMA=   1.3110
  2.7909  2.3807  1.6429  1.6429  1.7165  1.7165  0.8967  0.8967  0.8619  0.8619
  0.6418  0.6418  0.3525

 Free energy of the ion-electron system (eV)
  ---------------------------------------------------
  alpha Z        PSCENC =       290.60389976
  Ewald energy   TEWEN  =    -11143.56050388
  -Hartree energ DENC   =     -3991.51539407
  -exchange      EXHF   =         0.00000000
  -V(xc)+E(xc)   XCENC  =        92.04088539
  PAW double counting   =     14935.31915680   -14499.54390139
  entropy T*S    EENTRO =        -0.00000000
  eigenvalues    EBANDS =      -833.49468198
  atomic energy  EATOM  =     15084.07529148
  Solvation  Ediel_sol  =         0.00000000
  ---------------------------------------------------
  free energy    TOTEN  =       -66.07524789 eV

  energy without entropy =      -66.07524789  energy(sigma->0) =      -66.07524789


--------------------------------------------------------------------------------------------------------




--------------------------------------- Iteration      1(  19)  ---------------------------------------


    POTLOK:  cpu time      0.0560: real time      0.0741
    SETDIJ:  cpu time      0.2393: real time      0.2393
    EDDIAG:  cpu time      0.4634: real time      0.4636
  RMM-DIIS:  cpu time      1.6745: real time      1.6751
    ORTHCH:  cpu time      0.0422: real time      0.0426
       DOS:  cpu time      0.0007: real time      0.0007
    CHARGE:  cpu time      0.5944: real time      0.5945
    MIXING:  cpu time      0.0023: real time      0.0023
    --------------------------------------------
      LOOP:  cpu time      3.0728: real time      3.0922

 eigenvalue-minimisations  :  3366
 total energy-change (2. order) : 0.7644909E-05  (-0.8655273E-05)
 number of electron     160.0000002 magnetization 
 augmentation part       34.9302940 magnetization 

 Broyden mixing:
  rms(total) = 0.54577E-02    rms(broyden)= 0.54577E-02
  rms(prec ) = 0.55989E-02
  weight for this iteration     100.00

 eigenvalues of (default mixing * dielectric matrix)
  average eigenvalue GAMMA=   1.2588
  2.8220  2.4172  1.2871  1.2871  1.6418  1.6418  1.2873  1.2873  0.9143  0.7537
  0.7537  0.5887  0.5887  0.3524

 Free energy of the ion-electron system (eV)
  ---------------------------------------------------
  alpha Z        PSCENC =       290.60389976
  Ewald energy   TEWEN  =    -11143.56050388
  -Hartree energ DENC   =     -3991.47665881
  -exchange      EXHF   =         0.00000000
  -V(xc)+E(xc)   XCENC  =        92.03856154
  PAW double counting   =     14928.99084864   -14493.19203801
  entropy T*S    EENTRO =        -0.00000000
  eigenvalues    EBANDS =      -833.55464096
  atomic energy  EATOM  =     15084.07529148
  Solvation  Ediel_sol  =         0.00000000
  ---------------------------------------------------
  free energy    TOTEN  =       -66.07524024 eV

  energy without entropy =      -66.07524024  energy(sigma->0) =      -66.07524024


--------------------------------------------------------------------------------------------------------




--------------------------------------- Iteration      1(  20)  ---------------------------------------


    POTLOK:  cpu time      0.0551: real time      0.0725
    SETDIJ:  cpu time      0.2394: real time      0.2394
    EDDIAG:  cpu time      0.4622: real time      0.4627
  RMM-DIIS:  cpu time      1.5943: real time      1.5948
    ORTHCH:  cpu time      0.0422: real time      0.0425
       DOS:  cpu time      0.0007: real time      0.0007
    CHARGE:  cpu time      0.5938: real time      0.5938
    MIXING:  cpu time      0.0025: real time      0.0025
    --------------------------------------------
      LOOP:  cpu time      2.9901: real time      3.0089

 eigenvalue-minimisations  :  3219
 total energy-change (2. order) : 0.7018934E-06  (-0.1258704E-05)
 number of electron     160.0000002 magnetization 
 augmentation part       34.9296078 magnetization 

 Broyden mixing:
  rms(total) = 0.17814E-02    rms(broyden)= 0.17813E-02
  rms(prec ) = 0.18216E-02
  weight for this iteration     100.00

 eigenvalues of (default mixing * dielectric matrix)
  average eigenvalue GAMMA=   1.4238
  2.9786  2.7266  2.3380  2.3380  1.5737  1.5737  1.4605  1.1723  0.9802  0.9593
  0.9593  0.6488  0.6488  0.3524  0.6472

 Free energy of the ion-electron system (eV)
  ---------------------------------------------------
  alpha Z        PSCENC =       290.60389976
  Ewald energy   TEWEN  =    -11143.56050388
  -Hartree energ DENC   =     -3991.64003569
  -exchange      EXHF   =         0.00000000
  -V(xc)+E(xc)   XCENC  =        92.04669298
  PAW double counting   =     14937.62585147   -14501.82822342
  entropy T*S    EENTRO =        -0.00000000
  eigenvalues    EBANDS =      -833.39821225
  atomic energy  EATOM  =     15084.07529148
  Solvation  Ediel_sol  =         0.00000000
  ---------------------------------------------------
  free energy    TOTEN  =       -66.07523954 eV

  energy without entropy =      -66.07523954  energy(sigma->0) =      -66.07523954


--------------------------------------------------------------------------------------------------------




--------------------------------------- Iteration      1(  21)  ---------------------------------------


    POTLOK:  cpu time      0.0608: real time      0.0787
    SETDIJ:  cpu time      0.2420: real time      0.2420
    EDDIAG:  cpu time      0.4986: real time      0.4989
  RMM-DIIS:  cpu time      1.7194: real time      1.7205
    ORTHCH:  cpu time      0.0451: real time      0.0451
       DOS:  cpu time      0.0006: real time      0.0006
    CHARGE:  cpu time      0.5932: real time      0.5933
    MIXING:  cpu time      0.0023: real time      0.0023
    --------------------------------------------
      LOOP:  cpu time      3.1620: real time      3.1815

 eigenvalue-minimisations  :  3416
 total energy-change (2. order) :-0.1113101E-05  (-0.4511575E-06)
 number of electron     160.0000002 magnetization 
 augmentation part       34.9295166 magnetization 

 Broyden mixing:
  rms(total) = 0.64954E-03    rms(broyden)= 0.64936E-03
  rms(prec ) = 0.66050E-03
  weight for this iteration     100.00

 eigenvalues of (default mixing * dielectric matrix)
  average eigenvalue GAMMA=   1.4622
  3.2626  3.2626  2.7728  1.5212  1.5212  1.9464  1.6311  1.6311  0.9721  0.9721
  0.8157  0.8157  0.6457  0.6457  0.3524  0.6266

 Free energy of the ion-electron system (eV)
  ---------------------------------------------------
  alpha Z        PSCENC =       290.60389976
  Ewald energy   TEWEN  =    -11143.56050388
  -Hartree energ DENC   =     -3991.70344506
  -exchange      EXHF   =         0.00000000
  -V(xc)+E(xc)   XCENC  =        92.04989834
  PAW double counting   =     14941.01502354   -14505.21554841
  entropy T*S    EENTRO =        -0.00000000
  eigenvalues    EBANDS =      -833.33985643
  atomic energy  EATOM  =     15084.07529148
  Solvation  Ediel_sol  =         0.00000000
  ---------------------------------------------------
  free energy    TOTEN  =       -66.07524066 eV

  energy without entropy =      -66.07524066  energy(sigma->0) =      -66.07524066


--------------------------------------------------------------------------------------------------------




--------------------------------------- Iteration      1(  22)  ---------------------------------------


    POTLOK:  cpu time      0.0746: real time      0.0751
    SETDIJ:  cpu time      0.2389: real time      0.2398
    EDDIAG:  cpu time      0.4632: real time      0.4632
  RMM-DIIS:  cpu time      1.7983: real time      1.7992
    ORTHCH:  cpu time      0.0425: real time      0.0425
       DOS:  cpu time      0.0006: real time      0.0006
    CHARGE:  cpu time      0.5939: real time      0.5946
    MIXING:  cpu time      0.0019: real time      0.0019
    --------------------------------------------
      LOOP:  cpu time      3.2138: real time      3.2170

 eigenvalue-minimisations  :  3545
 total energy-change (2. order) :-0.6035934E-06  (-0.1299727E-06)
 number of electron     160.0000002 magnetization 
 augmentation part       34.9297560 magnetization 

 Broyden mixing:
  rms(total) = 0.59410E-03    rms(broyden)= 0.59390E-03
  rms(prec ) = 0.61689E-03
  weight for this iteration     100.00

 eigenvalues of (default mixing * dielectric matrix)
  average eigenvalue GAMMA=   1.3779
  3.2685  3.2685  2.7734  1.5218  1.5218  1.9397  1.6358  1.6358  0.9711  0.9711
[...]
      6.44252      3.22126      6.44252        -0.000000      0.000000     -0.000000
      6.44252      6.44252      9.66378         0.000000      0.000000      0.000000
      6.44252      6.44252      3.22126        -0.000000     -0.000000      0.000000
      6.44252      9.66378      6.44252         0.000000      0.000000      0.000000
      9.66378      6.44252      6.44252         0.000000      0.000000      0.000000
      9.66378      9.66378      9.66378        -0.000000     -0.000000     -0.000000
      0.00000      0.00000      0.00000        -0.000000     -0.000000     -0.000000
      0.00000      3.22126      3.22126        -0.000000     -0.000000     -0.000000
      3.22126      0.00000      3.22126        -0.000000     -0.000000     -0.000000
      3.22126      3.22126      6.44252         0.000000      0.000000      0.000000
      3.22126      3.22126      0.00000        -0.000000     -0.000000     -0.000000
      3.22126      6.44252      3.22126        -0.000000      0.000000      0.000000
      6.44252      3.22126      3.22126         0.000000     -0.000000      0.000000
      6.44252      6.44252      6.44252         0.000000      0.000000      0.000000
 -----------------------------------------------------------------------------------
    total drift:                                0.000000      0.000000      0.000000


--------------------------------------------------------------------------------------------------------



  ML FREE ENERGIE OF THE ION-ELECTRON SYSTEM (eV)
  ---------------------------------------------------
  free  energy ML TOTEN  =       -66.07526276 eV

  ML energy  without entropy=      -66.07526276  ML energy(sigma->0) =      -66.07526276

     LOOP+:  cpu time      0.0059: real time      0.0278


--------------------------------------------------------------------------------------------------------


    OFIELD:  cpu time      0.0000: real time      0.0000

  ML FORCE on cell =-STRESS in cart. coord. units (eV/cell)
  Direction    XX          YY          ZZ          XY          YZ          ZX
  --------------------------------------------------------------------------------------
  Total:     -0.02578    -0.02578    -0.02578    -0.00000    -0.00000    -0.00000
  in kB      -0.07724    -0.07724    -0.07724    -0.00000    -0.00000    -0.00000
  external pressure =       -0.08 kB  Pullay stress =        0.00 kB

  kinetic pressure (ideal gas correction) =      0.00 kB
  total pressure  =     -0.08 kB
  Total+kin.    -0.077      -0.077      -0.077      -0.000      -0.000      -0.000
  volume of cell :      534.81
      direct lattice vectors                 reciprocal lattice vectors
     0.000000000  6.442516663  6.442516663    -0.077609423  0.077609423  0.077609423
     6.442516663  0.000000000  6.442516663     0.077609423 -0.077609423  0.077609423
     6.442516663  6.442516663  0.000000000     0.077609423  0.077609423 -0.077609423

  length of vectors
     9.111094440  9.111094440  9.111094440     0.134423464  0.134423464  0.134423464


  POSITION                                       TOTAL-FORCE (eV/Angst) (ML)
 -----------------------------------------------------------------------------------
      3.22126      3.22126      3.22126        -0.000000     -0.000000     -0.000000
      3.22126      6.44252      6.44252        -0.000000      0.000000     -0.000000
      6.44252      3.22126      6.44252         0.000000     -0.000000     -0.000000
      6.44252      6.44252      9.66377        -0.000000     -0.000000     -0.000000
      6.44252      6.44252      3.22126         0.000000      0.000000     -0.000000
      6.44252      9.66377      6.44252        -0.000000      0.000000      0.000000
      9.66377      6.44252      6.44252         0.000000     -0.000000      0.000000
      9.66377      9.66377      9.66377         0.000000      0.000000      0.000000
      0.00000      0.00000      0.00000        -0.000000     -0.000000     -0.000000
      0.00000      3.22126      3.22126        -0.000000     -0.000000      0.000000
      3.22126      0.00000      3.22126        -0.000000     -0.000000      0.000000
      3.22126      3.22126      6.44252        -0.000000     -0.000000      0.000000
      3.22126      3.22126      0.00000         0.000000      0.000000     -0.000000
      3.22126      6.44252      3.22126         0.000000      0.000000     -0.000000
      6.44252      3.22126      3.22126         0.000000      0.000000     -0.000000
      6.44252      6.44252      6.44252        -0.000000     -0.000000      0.000000
 -----------------------------------------------------------------------------------
    total drift:                               -0.000000     -0.000000      0.000000


--------------------------------------------------------------------------------------------------------



  ML FREE ENERGIE OF THE ION-ELECTRON SYSTEM (eV)
  ---------------------------------------------------
  free  energy ML TOTEN  =       -66.07526276 eV

  ML energy  without entropy=      -66.07526276  ML energy(sigma->0) =      -66.07526276

     LOOP+:  cpu time      0.0059: real time      0.0281


--------------------------------------------------------------------------------------------------------


    OFIELD:  cpu time      0.0000: real time      0.0000

  ML FORCE on cell =-STRESS in cart. coord. units (eV/cell)
  Direction    XX          YY          ZZ          XY          YZ          ZX
  --------------------------------------------------------------------------------------
  Total:     -0.02578    -0.02578    -0.02578     0.00000    -0.00000     0.00000
  in kB      -0.07724    -0.07724    -0.07724     0.00000    -0.00000     0.00000
  external pressure =       -0.08 kB  Pullay stress =        0.00 kB

  kinetic pressure (ideal gas correction) =      0.00 kB
  total pressure  =     -0.08 kB
  Total+kin.    -0.077      -0.077      -0.077       0.000      -0.000       0.000
  volume of cell :      534.81
      direct lattice vectors                 reciprocal lattice vectors
     0.000000000  6.442516625  6.442516625    -0.077609423  0.077609423  0.077609423
     6.442516625  0.000000000  6.442516625     0.077609423 -0.077609423  0.077609423
     6.442516625  6.442516625  0.000000000     0.077609423  0.077609423 -0.077609423

  length of vectors
     9.111094387  9.111094387  9.111094387     0.134423464  0.134423464  0.134423464


  POSITION                                       TOTAL-FORCE (eV/Angst) (ML)
 -----------------------------------------------------------------------------------
      3.22126      3.22126      3.22126         0.000000      0.000000      0.000000
      3.22126      6.44252      6.44252         0.000000     -0.000000     -0.000000
      6.44252      3.22126      6.44252        -0.000000      0.000000     -0.000000
      6.44252      6.44252      9.66377         0.000000      0.000000      0.000000
      6.44252      6.44252      3.22126        -0.000000     -0.000000      0.000000
      6.44252      9.66377      6.44252         0.000000      0.000000      0.000000
      9.66377      6.44252      6.44252         0.000000      0.000000      0.000000
      9.66377      9.66377      9.66377         0.000000      0.000000      0.000000
      0.00000      0.00000      0.00000        -0.000000     -0.000000     -0.000000
      0.00000      3.22126      3.22126        -0.000000     -0.000000      0.000000
      3.22126      0.00000      3.22126        -0.000000      0.000000      0.000000
      3.22126      3.22126      6.44252        -0.000000     -0.000000      0.000000
      3.22126      3.22126      0.00000        -0.000000     -0.000000     -0.000000
      3.22126      6.44252      3.22126        -0.000000      0.000000     -0.000000
      6.44252      3.22126      3.22126         0.000000     -0.000000     -0.000000
      6.44252      6.44252      6.44252        -0.000000     -0.000000     -0.000000
 -----------------------------------------------------------------------------------
    total drift:                               -0.000000     -0.000000     -0.000000


--------------------------------------------------------------------------------------------------------



  ML FREE ENERGIE OF THE ION-ELECTRON SYSTEM (eV)
  ---------------------------------------------------
  free  energy ML TOTEN  =       -66.07526276 eV

  ML energy  without entropy=      -66.07526276  ML energy(sigma->0) =      -66.07526276

     LOOP+:  cpu time      0.0059: real time      0.0275


--------------------------------------------------------------------------------------------------------


    OFIELD:  cpu time      0.0000: real time      0.0000

  ML FORCE on cell =-STRESS in cart. coord. units (eV/cell)
  Direction    XX          YY          ZZ          XY          YZ          ZX
  --------------------------------------------------------------------------------------
  Total:     -0.02578    -0.02578    -0.02578     0.00000     0.00000    -0.00000
  in kB      -0.07724    -0.07724    -0.07724     0.00000     0.00000    -0.00000
  external pressure =       -0.08 kB  Pullay stress =        0.00 kB

  kinetic pressure (ideal gas correction) =      0.00 kB
  total pressure  =     -0.08 kB
  Total+kin.    -0.077      -0.077      -0.077       0.000       0.000      -0.000
  volume of cell :      534.81
      direct lattice vectors                 reciprocal lattice vectors
     0.000000000  6.442516606  6.442516606    -0.077609424  0.077609424  0.077609424
     6.442516606  0.000000000  6.442516606     0.077609424 -0.077609424  0.077609424
     6.442516606  6.442516606  0.000000000     0.077609424  0.077609424 -0.077609424

  length of vectors
     9.111094360  9.111094360  9.111094360     0.134423465  0.134423465  0.134423465


  POSITION                                       TOTAL-FORCE (eV/Angst) (ML)
 -----------------------------------------------------------------------------------
      3.22126      3.22126      3.22126        -0.000000     -0.000000     -0.000000
      3.22126      6.44252      6.44252        -0.000000      0.000000      0.000000
      6.44252      3.22126      6.44252         0.000000     -0.000000      0.000000
      6.44252      6.44252      9.66377        -0.000000     -0.000000     -0.000000
      6.44252      6.44252      3.22126         0.000000      0.000000     -0.000000
      6.44252      9.66377      6.44252        -0.000000     -0.000000      0.000000
      9.66377      6.44252      6.44252        -0.000000     -0.000000      0.000000
      9.66377      9.66377      9.66377        -0.000000     -0.000000      0.000000
      0.00000      0.00000      0.00000        -0.000000     -0.000000     -0.000000
      0.00000      3.22126      3.22126        -0.000000      0.000000      0.000000
      3.22126      0.00000      3.22126         0.000000     -0.000000      0.000000
      3.22126      3.22126      6.44252        -0.000000     -0.000000      0.000000
      3.22126      3.22126      0.00000         0.000000      0.000000     -0.000000
      3.22126      6.44252      3.22126        -0.000000      0.000000     -0.000000
      6.44252      3.22126      3.22126         0.000000     -0.000000     -0.000000
      6.44252      6.44252      6.44252         0.000000      0.000000      0.000000
 -----------------------------------------------------------------------------------
    total drift:                                0.000000     -0.000000      0.000000


--------------------------------------------------------------------------------------------------------



  ML FREE ENERGIE OF THE ION-ELECTRON SYSTEM (eV)
  ---------------------------------------------------
  free  energy ML TOTEN  =       -66.07526276 eV

  ML energy  without entropy=      -66.07526276  ML energy(sigma->0) =      -66.07526276

     LOOP+:  cpu time      0.0060: real time      0.0279


--------------------------------------------------------------------------------------------------------


    OFIELD:  cpu time      0.0000: real time      0.0000

  ML FORCE on cell =-STRESS in cart. coord. units (eV/cell)
  Direction    XX          YY          ZZ          XY          YZ          ZX
  --------------------------------------------------------------------------------------
  Total:     -0.02578    -0.02578    -0.02578    -0.00000     0.00000     0.00000
  in kB      -0.07724    -0.07724    -0.07724    -0.00000     0.00000     0.00000
  external pressure =       -0.08 kB  Pullay stress =        0.00 kB

  kinetic pressure (ideal gas correction) =      0.00 kB
  total pressure  =     -0.08 kB
  Total+kin.    -0.077      -0.077      -0.077      -0.000       0.000       0.000
  volume of cell :      534.81
      direct lattice vectors                 reciprocal lattice vectors
     0.000000000  6.442516596  6.442516596    -0.077609424  0.077609424  0.077609424
     6.442516596  0.000000000  6.442516596     0.077609424 -0.077609424  0.077609424
     6.442516596  6.442516596  0.000000000     0.077609424  0.077609424 -0.077609424

  length of vectors
     9.111094346  9.111094346  9.111094346     0.134423465  0.134423465  0.134423465


  POSITION                                       TOTAL-FORCE (eV/Angst) (ML)
 -----------------------------------------------------------------------------------
      3.22126      3.22126      3.22126         0.000000      0.000000      0.000000
      3.22126      6.44252      6.44252        -0.000000     -0.000000     -0.000000
      6.44252      3.22126      6.44252        -0.000000     -0.000000     -0.000000
      6.44252      6.44252      9.66377         0.000000      0.000000      0.000000
      6.44252      6.44252      3.22126        -0.000000     -0.000000     -0.000000
      6.44252      9.66377      6.44252         0.000000      0.000000      0.000000
      9.66377      6.44252      6.44252         0.000000      0.000000      0.000000
      9.66377      9.66377      9.66377         0.000000      0.000000      0.000000
      0.00000      0.00000      0.00000         0.000000      0.000000     -0.000000
      0.00000      3.22126      3.22126         0.000000     -0.000000      0.000000
      3.22126      0.00000      3.22126        -0.000000      0.000000      0.000000
      3.22126      3.22126      6.44252         0.000000      0.000000      0.000000
      3.22126      3.22126      0.00000        -0.000000     -0.000000     -0.000000
      3.22126      6.44252      3.22126         0.000000     -0.000000      0.000000
      6.44252      3.22126      3.22126        -0.000000      0.000000      0.000000
      6.44252      6.44252      6.44252        -0.000000     -0.000000      0.000000
 -----------------------------------------------------------------------------------
    total drift:                               -0.000000      0.000000      0.000000


--------------------------------------------------------------------------------------------------------



  ML FREE ENERGIE OF THE ION-ELECTRON SYSTEM (eV)
  ---------------------------------------------------
  free  energy ML TOTEN  =       -66.07526276 eV

  ML energy  without entropy=      -66.07526276  ML energy(sigma->0) =      -66.07526276

     LOOP+:  cpu time      0.0058: real time      0.0272


--------------------------------------------------------------------------------------------------------


    OFIELD:  cpu time      0.0000: real time      0.0000

  ML FORCE on cell =-STRESS in cart. coord. units (eV/cell)
  Direction    XX          YY          ZZ          XY          YZ          ZX
  --------------------------------------------------------------------------------------
  Total:     -0.02578    -0.02578    -0.02578     0.00000     0.00000     0.00000
  in kB      -0.07717    -0.07717    -0.07717     0.00000     0.00000     0.00000
  external pressure =       -0.08 kB  Pullay stress =        0.00 kB

  kinetic pressure (ideal gas correction) =      0.00 kB
  total pressure  =     -0.08 kB
  Total+kin.    -0.077      -0.077      -0.077       0.000       0.000       0.000
  volume of cell :      535.25
      direct lattice vectors                 reciprocal lattice vectors
     0.000000000  6.444304699  6.444304699    -0.077587889  0.077587889  0.077587889
     6.444304699  0.000000000  6.444304699     0.077587889 -0.077587889  0.077587889
     6.444304699  6.444304699  0.000000000     0.077587889  0.077587889 -0.077587889

  length of vectors
     9.113623106  9.113623106  9.113623106     0.134386166  0.134386166  0.134386166


  POSITION                                       TOTAL-FORCE (eV/Angst) (ML)
 -----------------------------------------------------------------------------------
      3.22215      3.22215      3.22215         0.000000      0.000000      0.000000
      3.22215      6.44430      6.44430         0.000000      0.000000     -0.000000
      6.44430      3.22215      6.44430         0.000000      0.000000     -0.000000
      6.44430      6.44430      9.66646        -0.000000     -0.000000      0.000000
      6.44430      6.44430      3.22215         0.000000      0.000000      0.000000
      6.44430      9.66646      6.44430        -0.000000     -0.000000      0.000000
      9.66646      6.44430      6.44430        -0.000000     -0.000000      0.000000
      9.66646      9.66646      9.66646        -0.000000     -0.000000     -0.000000
      0.00000      0.00000      0.00000        -0.000000     -0.000000     -0.000000
      0.00000      3.22215      3.22215        -0.000000      0.000000      0.000000
      3.22215      0.00000      3.22215         0.000000     -0.000000      0.000000
      3.22215      3.22215      6.44430        -0.000000     -0.000000      0.000000
      3.22215      3.22215      0.00000        -0.000000     -0.000000     -0.000000
      3.22215      6.44430      3.22215        -0.000000      0.000000     -0.000000
      6.44430      3.22215      3.22215         0.000000     -0.000000     -0.000000
      6.44430      6.44430      6.44430         0.000000      0.000000      0.000000
 -----------------------------------------------------------------------------------
    total drift:                                0.000000      0.000000      0.000000


--------------------------------------------------------------------------------------------------------



  ML FREE ENERGIE OF THE ION-ELECTRON SYSTEM (eV)
  ---------------------------------------------------
  free  energy ML TOTEN  =       -66.07524129 eV

  ML energy  without entropy=      -66.07524129  ML energy(sigma->0) =      -66.07524129

     LOOP+:  cpu time      0.0059: real time      0.0274
 -----------------------------------------------------------------------------
|                                                                             |
|     EEEEEEE  RRRRRR   RRRRRR   OOOOOOO  RRRRRR      ###     ###     ###     |
|     E        R     R  R     R  O     O  R     R     ###     ###     ###     |
|     E        R     R  R     R  O     O  R     R     ###     ###     ###     |
|     EEEEE    RRRRRR   RRRRRR   O     O  RRRRRR       #       #       #      |
|     E        R   R    R   R    O     O  R   R                               |
|     E        R    R   R    R   O     O  R    R      ###     ###     ###     |
|     EEEEEEE  R     R  R     R  OOOOOOO  R     R     ###     ###     ###     |
|                                                                             |
|     ZBRENT: fatal error in bracketing                                       |
|      please rerun with smaller EDIFF, or copy CONTCAR                       |
|      to POSCAR and continue                                                 |
|                                                                             |
|       ---->  I REFUSE TO CONTINUE WITH THIS SICK JOB ... BYE!!! <----       |
|                                                                             |
 -----------------------------------------------------------------------------

