   16   16  200    1
  0.2007720E+02  0.7687399E-09  0.7687399E-09  0.7687399E-09  0.5000000E-15
   1.0000000000000000E-004
  CAR 
 unknown system                          
     64    112     48
