       N       E                     dE             d eps       ncg     rms          rms(c)
DAV:   1     0.155063881404E+03    0.15506E+03   -0.26215E+04 10752   0.123E+03
DAV:   2    -0.797547562877E+02   -0.23482E+03   -0.21766E+03 13240   0.169E+02
DAV:   3    -0.934341630280E+02   -0.13679E+02   -0.13451E+02 13880   0.362E+01
DAV:   4    -0.937071931937E+02   -0.27303E+00   -0.27158E+00 13608   0.628E+00
DAV:   5    -0.937143102396E+02   -0.71170E-02   -0.71132E-02 13288   0.952E-01    0.140E+01
RMM:   6    -0.924894800507E+02    0.12248E+01   -0.54433E-01 10752   0.201E+00    0.842E+00
RMM:   7    -0.919282810293E+02    0.56120E+00   -0.12875E+00 10752   0.318E+00    0.463E-01
RMM:   8    -0.919382824815E+02   -0.10001E-01   -0.11833E-01 10793   0.118E+00    0.249E-01
RMM:   9    -0.919416832465E+02   -0.34008E-02   -0.35099E-02 10910   0.579E-01    0.271E-01
RMM:  10    -0.919422366551E+02   -0.55341E-03   -0.60273E-03 10931   0.286E-01    0.279E-01
RMM:  11    -0.919413626433E+02    0.87401E-03   -0.20794E-03 10752   0.175E-01    0.122E+00
RMM:  12    -0.919423267438E+02   -0.96410E-03   -0.20034E-03 10752   0.178E-01    0.220E-01
RMM:  13    -0.919424000928E+02   -0.73349E-04   -0.18022E-04 10813   0.553E-02    0.522E-02
RMM:  14    -0.919424037563E+02   -0.36635E-05   -0.52808E-05 11020   0.285E-02    0.317E-02
RMM:  15    -0.919424021636E+02    0.15927E-05   -0.91852E-06 10752   0.127E-02    0.807E-03
RMM:  16    -0.919424034679E+02   -0.13043E-05   -0.22845E-06 11212   0.597E-03    0.110E-02
RMM:  17    -0.919424033284E+02    0.13951E-06   -0.76920E-07 10752   0.351E-03    0.284E-03
RMM:  18    -0.919424035559E+02   -0.22746E-06   -0.17104E-07 10456   0.156E-03    0.564E-04
RMM:  19    -0.919424035090E+02    0.46880E-07   -0.29619E-08  8233   0.681E-04    0.557E-04
RMM:  20    -0.919424035033E+02    0.57025E-08   -0.11660E-08  7359   0.358E-04
   1 F= -.91942404E+02 E0= -.91942404E+02  d E =-.919424E+02
       N       E                     dE             d eps       ncg     rms          rms(c)
DAV:   1    -0.919451050344E+02   -0.27015E-02   -0.91188E-02 12624   0.101E+00    0.146E-01
RMM:   2    -0.919456373576E+02   -0.53232E-03   -0.59404E-03 10752   0.289E-01    0.562E-02
RMM:   3    -0.919456903864E+02   -0.53029E-04   -0.88237E-04 10779   0.133E-01    0.245E-02
RMM:   4    -0.919456921421E+02   -0.17557E-05   -0.14675E-04 10959   0.566E-02    0.977E-03
RMM:   5    -0.919456942671E+02   -0.21249E-05   -0.30338E-05 11479   0.241E-02    0.314E-03
RMM:   6    -0.919456948343E+02   -0.56726E-06   -0.58561E-06 11336   0.999E-03    0.110E-03
RMM:   7    -0.919456949255E+02   -0.91169E-07   -0.10462E-06 11282   0.402E-03    0.342E-04
RMM:   8    -0.919456949469E+02   -0.21424E-07   -0.24181E-07  9937   0.184E-03    0.237E-04
RMM:   9    -0.919456949507E+02   -0.37808E-08   -0.49701E-08  8742   0.822E-04
   2 F= -.91945695E+02 E0= -.91945695E+02  d E =-.329145E-02
       N       E                     dE             d eps       ncg     rms          rms(c)
DAV:   1    -0.919457063869E+02   -0.11440E-04   -0.32999E-04 13448   0.609E-02    0.883E-03
RMM:   2    -0.919457082581E+02   -0.18712E-05   -0.20993E-05 10752   0.173E-02    0.339E-03
RMM:   3    -0.919457084319E+02   -0.17381E-06   -0.30093E-06 10759   0.792E-03    0.146E-03
RMM:   4    -0.919457084340E+02   -0.21118E-08   -0.48588E-07 10909   0.336E-03    0.590E-04
RMM:   5    -0.919457084403E+02   -0.62946E-08   -0.97312E-08 11047   0.142E-03
   3 F= -.91945708E+02 E0= -.91945708E+02  d E =-.330494E-02
       N       E                     dE             d eps       ncg     rms          rms(c)
DAV:   1    -0.919457983347E+02   -0.89901E-04   -0.22566E-03 12584   0.161E-01    0.258E-02
RMM:   2    -0.919458103686E+02   -0.12034E-04   -0.15094E-04 10752   0.472E-02    0.928E-03
RMM:   3    -0.919458119059E+02   -0.15373E-05   -0.23227E-05 10754   0.215E-02    0.415E-03
RMM:   4    -0.919458120844E+02   -0.17848E-06   -0.37380E-06 10992   0.909E-03    0.181E-03
RMM:   5    -0.919458121379E+02   -0.53499E-07   -0.79737E-07 11240   0.409E-03    0.472E-04
RMM:   6    -0.919458121526E+02   -0.14742E-07   -0.16404E-07 10813   0.176E-03    0.238E-04
RMM:   7    -0.919458121542E+02   -0.16280E-08   -0.27715E-08  8195   0.709E-04
   4 F= -.91945812E+02 E0= -.91945812E+02  d E =-.103714E-03
       N       E                     dE             d eps       ncg     rms          rms(c)
DAV:   1    -0.919458128187E+02   -0.66606E-06   -0.19989E-05 14152   0.152E-02    0.246E-03
RMM:   2    -0.919458129268E+02   -0.10814E-06   -0.13594E-06 10752   0.449E-03    0.875E-04
RMM:   3    -0.919458129422E+02   -0.15356E-07   -0.21212E-07 10757   0.206E-03    0.389E-04
RMM:   4    -0.919458129445E+02   -0.23329E-08   -0.34228E-08  8927   0.875E-04    0.172E-04
RMM:   5    -0.919458129452E+02   -0.67212E-09   -0.72952E-09  6723   0.398E-04
   5 F= -.91945813E+02 E0= -.91945813E+02  d E =-.104505E-03
       N       E                     dE             d eps       ncg     rms          rms(c)
DAV:   1    -0.919458195174E+02   -0.65729E-05   -0.77180E-05 12168   0.304E-02    0.388E-03
RMM:   2    -0.919458197930E+02   -0.27562E-06   -0.33879E-06 10752   0.727E-03    0.173E-03
RMM:   3    -0.919458198213E+02   -0.28329E-07   -0.54922E-07 10787   0.337E-03    0.728E-04
RMM:   4    -0.919458198261E+02   -0.47512E-08   -0.94572E-08 10853   0.146E-03    0.307E-04
RMM:   5    -0.919458198274E+02   -0.13006E-08   -0.16757E-08  7236   0.627E-04
   6 F= -.91945820E+02 E0= -.91945820E+02  d E =-.688220E-05
       N       E                     dE             d eps       ncg     rms          rms(c)
DAV:   1    -0.919458227381E+02   -0.29121E-05   -0.14217E-04 12096   0.412E-02    0.529E-03
RMM:   2    -0.919458232555E+02   -0.51739E-06   -0.63332E-06 10752   0.992E-03    0.235E-03
RMM:   3    -0.919458233093E+02   -0.53750E-07   -0.10290E-06 10789   0.461E-03    0.100E-03
RMM:   4    -0.919458233177E+02   -0.84583E-08   -0.17752E-07 10864   0.200E-03    0.420E-04
RMM:   5    -0.919458233203E+02   -0.25748E-08   -0.32591E-08  8464   0.860E-04
   7 F= -.91945823E+02 E0= -.91945823E+02  d E =-.103751E-04
       N       E                     dE             d eps       ncg     rms          rms(c)
DAV:   1    -0.919458278072E+02   -0.44895E-05   -0.29576E-05 12400   0.192E-02    0.193E-03
RMM:   2    -0.919458278546E+02   -0.47401E-07   -0.73292E-07 10752   0.364E-03    0.112E-03
RMM:   3    -0.919458278591E+02   -0.44483E-08   -0.15572E-07 10803   0.180E-03    0.281E-04
RMM:   4    -0.919458278622E+02   -0.31332E-08   -0.30690E-08  8001   0.796E-04    0.166E-04
RMM:   5    -0.919458278624E+02   -0.21282E-09   -0.49051E-09  6890   0.323E-04
   8 F= -.91945828E+02 E0= -.91945828E+02  d E =-.454212E-05
       N       E                     dE             d eps       ncg     rms          rms(c)
DAV:   1    -0.919458386447E+02   -0.10782E-04   -0.26473E-04 11648   0.577E-02    0.578E-03
RMM:   2    -0.919458390554E+02   -0.41073E-06   -0.65312E-06 10752   0.109E-02    0.336E-03
RMM:   3    -0.919458390881E+02   -0.32649E-07   -0.13877E-06 10801   0.535E-03    0.839E-04
RMM:   4    -0.919458391158E+02   -0.27692E-07   -0.27262E-07 10935   0.237E-03    0.482E-04
RMM:   5    -0.919458391179E+02   -0.21400E-08   -0.43973E-08 10013   0.101E-03
   9 F= -.91945839E+02 E0= -.91945839E+02  d E =-.157976E-04
       N       E                     dE             d eps       ncg     rms          rms(c)
DAV:   1    -0.919458490831E+02   -0.99673E-05   -0.10592E-03 11328   0.115E-01    0.116E-02
RMM:   2    -0.919458507249E+02   -0.16418E-05   -0.26145E-05 10752   0.217E-02    0.673E-03
RMM:   3    -0.919458508526E+02   -0.12774E-06   -0.55560E-06 10801   0.107E-02    0.168E-03
RMM:   4    -0.919458509632E+02   -0.11055E-06   -0.10893E-06 10932   0.474E-03    0.964E-04
RMM:   5    -0.919458509724E+02   -0.92177E-08   -0.17899E-07 10907   0.203E-03    0.333E-04
RMM:   6    -0.919458509756E+02   -0.31832E-08   -0.40375E-08  9463   0.949E-04
  10 F= -.91945851E+02 E0= -.91945851E+02  d E =-.276553E-04
       N       E                     dE             d eps       ncg     rms          rms(c)
DAV:   1    -0.919458515709E+02   -0.59855E-06   -0.11004E-04 12416   0.371E-02    0.370E-03
RMM:   2    -0.919458517445E+02   -0.17357E-06   -0.27258E-06 10752   0.702E-03    0.216E-03
RMM:   3    -0.919458517582E+02   -0.13676E-07   -0.57525E-07 10802   0.345E-03    0.547E-04
RMM:   4    -0.919458517697E+02   -0.11540E-07   -0.11343E-07 10923   0.153E-03    0.313E-04
RMM:   5    -0.919458517707E+02   -0.99499E-09   -0.18482E-08  7301   0.651E-04
  11 F= -.91945852E+02 E0= -.91945852E+02  d E =-.284504E-04
       N       E                     dE             d eps       ncg     rms          rms(c)
DAV:   1    -0.919458539602E+02   -0.21905E-05   -0.13663E-04 11712   0.402E-02    0.533E-03
RMM:   2    -0.919458544770E+02   -0.51675E-06   -0.65676E-06 10752   0.101E-02    0.231E-03
RMM:   3    -0.919458545174E+02   -0.40408E-07   -0.10563E-06 10780   0.466E-03    0.985E-04
RMM:   4    -0.919458545244E+02   -0.70058E-08   -0.18498E-07 10832   0.202E-03    0.429E-04
RMM:   5    -0.919458545269E+02   -0.25202E-08   -0.33428E-08  8562   0.863E-04
  12 F= -.91945855E+02 E0= -.91945855E+02  d E =-.275623E-05
       N       E                     dE             d eps       ncg     rms          rms(c)
DAV:   1    -0.919458545381E+02   -0.13741E-07   -0.65894E-07 13976   0.286E-03    0.380E-04
RMM:   2    -0.919458545403E+02   -0.21892E-08   -0.30063E-08  7212   0.664E-04    0.168E-04
RMM:   3    -0.919458545404E+02   -0.24556E-10   -0.39503E-09  5897   0.279E-04    0.709E-05
RMM:   4    -0.919458545403E+02    0.34561E-10   -0.57913E-10  5353   0.111E-04    0.330E-05
RMM:   5    -0.919458545403E+02    0.18190E-11   -0.41830E-12  1517   0.515E-05
  13 F= -.91945855E+02 E0= -.91945855E+02  d E =-.276962E-05
       N       E                     dE             d eps       ncg     rms          rms(c)
DAV:   1    -0.919458549883E+02   -0.44796E-06   -0.59389E-06 11856   0.868E-03    0.118E-03
RMM:   2    -0.919458550019E+02   -0.13613E-07   -0.25359E-07 10752   0.197E-03    0.519E-04
RMM:   3    -0.919458550035E+02   -0.15543E-08   -0.47932E-08 10560   0.929E-04    0.232E-04
RMM:   4    -0.919458550040E+02   -0.55388E-09   -0.88998E-09  6820   0.415E-04    0.909E-05
RMM:   5    -0.919458550042E+02   -0.19827E-09   -0.17197E-09  6459   0.184E-04
  14 F= -.91945855E+02 E0= -.91945855E+02  d E =-.463878E-06
       N       E                     dE             d eps       ncg     rms          rms(c)
DAV:   1    -0.919458552621E+02   -0.25808E-06   -0.15604E-05 11760   0.141E-02    0.190E-03
RMM:   2    -0.919458552991E+02   -0.36984E-07   -0.66762E-07 10752   0.320E-03    0.839E-04
RMM:   3    -0.919458553031E+02   -0.40245E-08   -0.12694E-07 10792   0.151E-03    0.376E-04
RMM:   4    -0.919458553044E+02   -0.12915E-08   -0.24048E-08  7509   0.677E-04    0.146E-04
RMM:   5    -0.919458553048E+02   -0.43019E-09   -0.42049E-09  6970   0.293E-04
  15 F= -.91945855E+02 E0= -.91945855E+02  d E =-.764489E-06
       N       E                     dE             d eps       ncg     rms          rms(c)
DAV:   1    -0.919458556682E+02   -0.36382E-06   -0.48551E-06 12192   0.777E-03    0.799E-04
RMM:   2    -0.919458556767E+02   -0.85156E-08   -0.13138E-07 10752   0.152E-03    0.456E-04
RMM:   3    -0.919458556775E+02   -0.81491E-09   -0.27304E-08  7569   0.744E-04    0.135E-04
RMM:   4    -0.919458556780E+02   -0.45202E-09   -0.49177E-09  6363   0.320E-04    0.706E-05
RMM:   5    -0.919458556780E+02   -0.50932E-10   -0.96387E-10  6131   0.138E-04
  16 F= -.91945856E+02 E0= -.91945856E+02  d E =-.373226E-06
       N       E                     dE             d eps       ncg     rms          rms(c)
DAV:   1    -0.919458563504E+02   -0.67242E-06   -0.43518E-05 11408   0.233E-02    0.239E-03
RMM:   2    -0.919458564252E+02   -0.74792E-07   -0.11687E-06 10752   0.454E-03    0.136E-03
RMM:   3    -0.919458564318E+02   -0.66420E-08   -0.24063E-07 10804   0.222E-03    0.392E-04
RMM:   4    -0.919458564363E+02   -0.44711E-08   -0.47660E-08  9598   0.991E-04    0.206E-04
RMM:   5    -0.919458564367E+02   -0.37562E-09   -0.75944E-09  7058   0.409E-04
  17 F= -.91945856E+02 E0= -.91945856E+02  d E =-.113188E-05
       N       E                     dE             d eps       ncg     rms          rms(c)
DAV:   1    -0.919458559847E+02    0.45161E-06   -0.17416E-04 11264   0.466E-02    0.478E-03
RMM:   2    -0.919458562841E+02   -0.29935E-06   -0.46812E-06 10752   0.908E-03    0.273E-03
RMM:   3    -0.919458563105E+02   -0.26453E-07   -0.96435E-07 10804   0.444E-03    0.784E-04
RMM:   4    -0.919458563285E+02   -0.18003E-07   -0.19114E-07 10913   0.199E-03    0.405E-04
RMM:   5    -0.919458563302E+02   -0.17308E-08   -0.31519E-08  8174   0.848E-04
  18 F= -.91945856E+02 E0= -.91945856E+02  d E =-.102543E-05
       N       E                     dE             d eps       ncg     rms          rms(c)
DAV:   1    -0.919458565426E+02   -0.21407E-06   -0.58482E-05 11376   0.271E-02    0.279E-03
RMM:   2    -0.919458566412E+02   -0.98657E-07   -0.15584E-06 10752   0.522E-03    0.159E-03
RMM:   3    -0.919458566493E+02   -0.80581E-08   -0.31632E-07 10802   0.254E-03    0.455E-04
RMM:   4    -0.919458566552E+02   -0.58853E-08   -0.61799E-08 10649   0.113E-03    0.234E-04
RMM:   5    -0.919458566557E+02   -0.55024E-09   -0.98698E-09  6901   0.477E-04
  19 F= -.91945857E+02 E0= -.91945857E+02  d E =-.135092E-05
       N       E                     dE             d eps       ncg     rms          rms(c)
DAV:   1    -0.919458566551E+02    0.47294E-10   -0.64064E-07 12608   0.287E-03    0.300E-04
RMM:   2    -0.919458566562E+02   -0.10468E-08   -0.16861E-08  5845   0.531E-04    0.170E-04
RMM:   3    -0.919458566562E+02   -0.24556E-10   -0.26588E-09  5693   0.234E-04    0.570E-05
RMM:   4    -0.919458566562E+02   -0.12733E-10   -0.30065E-10  2844   0.979E-05    0.296E-05
RMM:   5    -0.919458566562E+02    0.54570E-11   -0.94721E-12   784   0.689E-05
  20 F= -.91945857E+02 E0= -.91945857E+02  d E =-.135140E-05
       N       E                     dE             d eps       ncg     rms          rms(c)
DAV:   1    -0.919458566392E+02    0.17024E-07   -0.76532E-06 11472   0.951E-03    0.129E-03
RMM:   2    -0.919458566708E+02   -0.31643E-07   -0.38182E-07 10752   0.240E-03    0.538E-04
RMM:   3    -0.919458566746E+02   -0.38017E-08   -0.60001E-08 10745   0.110E-03    0.246E-04
RMM:   4    -0.919458566749E+02   -0.26830E-09   -0.95426E-09  6949   0.470E-04    0.991E-05
RMM:   5    -0.919458566750E+02   -0.10277E-09   -0.17646E-09  6562   0.193E-04
  21 F= -.91945857E+02 E0= -.91945857E+02  d E =-.187974E-07
       N       E                     dE             d eps       ncg     rms          rms(c)
DAV:   1    -0.919458567132E+02   -0.38249E-07   -0.16276E-06 11424   0.440E-03    0.603E-04
RMM:   2    -0.919458567198E+02   -0.66011E-08   -0.80326E-08 10730   0.110E-03    0.252E-04
RMM:   3    -0.919458567205E+02   -0.76034E-09   -0.12358E-08  5654   0.500E-04    0.117E-04
RMM:   4    -0.919458567205E+02    0.12733E-10   -0.16768E-09  5571   0.197E-04    0.466E-05
RMM:   5    -0.919458567205E+02   -0.72760E-11   -0.14191E-10  2790   0.870E-05
  22 F= -.91945857E+02 E0= -.91945857E+02  d E =-.642995E-07
       N       E                     dE             d eps       ncg     rms          rms(c)
DAV:   1    -0.919458567205E+02   -0.30923E-10   -0.76314E-10  7784   0.112E-04    0.281E-05
RMM:   2    -0.919458567206E+02   -0.26375E-10   -0.34081E-12  1070   0.417E-05    0.259E-05
RMM:   3    -0.919458567206E+02   -0.27285E-11   -0.28652E-13   420   0.413E-05    0.246E-05
RMM:   4    -0.919458567206E+02    0.00000E+00    0.00000E+00   325   0.413E-05    0.246E-05
RMM:   5    -0.919458567206E+02   -0.18190E-11    0.00000E+00   294   0.413E-05
  23 F= -.91945857E+02 E0= -.91945857E+02  d E =-.643540E-07
       N       E                     dE             d eps       ncg     rms          rms(c)
DAV:   1    -0.919458567223E+02   -0.16944E-08   -0.16525E-07 11616   0.135E-03    0.214E-04
RMM:   2    -0.919458567232E+02   -0.92768E-09   -0.11434E-08  5532   0.412E-04    0.778E-05
RMM:   3    -0.919458567231E+02    0.66393E-10   -0.15032E-09  5440   0.171E-04    0.426E-05
RMM:   4    -0.919458567231E+02    0.30013E-10   -0.31612E-11  1496   0.735E-05    0.274E-05
RMM:   5    -0.919458567231E+02    0.90949E-11    0.00000E+00   630   0.712E-05
  24 F= -.91945857E+02 E0= -.91945857E+02  d E =-.251475E-08
       N       E                     dE             d eps       ncg     rms          rms(c)
DAV:   1    -0.919458567234E+02   -0.29559E-09   -0.11135E-08  6688   0.364E-04    0.493E-05
RMM:   2    -0.919458567235E+02   -0.92768E-10   -0.16360E-09  5209   0.154E-04    0.334E-05
RMM:   3    -0.919458567235E+02   -0.10914E-10    0.00000E+00   241   0.592E-05    0.282E-05
RMM:   4    -0.919458567235E+02   -0.16371E-10    0.00000E+00   211   0.604E-05    0.247E-05
RMM:   5    -0.919458567235E+02    0.10004E-10    0.00000E+00   163   0.601E-05
  25 F= -.91945857E+02 E0= -.91945857E+02  d E =-.292948E-08
       N       E                     dE             d eps       ncg     rms          rms(c)
DAV:   1    -0.919458567235E+02   -0.10004E-10   -0.19243E-10  6616   0.629E-05    0.283E-05
RMM:   2    -0.919458567235E+02    0.16371E-10    0.00000E+00   406   0.188E-05    0.260E-05
RMM:   3    -0.919458567235E+02    0.27285E-11    0.00000E+00   200   0.192E-05    0.246E-05
RMM:   4    -0.919458567235E+02   -0.18190E-11    0.00000E+00   138   0.192E-05    0.246E-05
RMM:   5    -0.919458567235E+02    0.18190E-11    0.00000E+00   129   0.192E-05
  26 F= -.91945857E+02 E0= -.91945857E+02  d E =-.293039E-08
       N       E                     dE             d eps       ncg     rms          rms(c)
DAV:   1    -0.919458567235E+02   -0.27285E-10   -0.23677E-11  6488   0.282E-05    0.251E-05
RMM:   2    -0.919458567235E+02    0.14552E-10    0.00000E+00   317   0.130E-05    0.247E-05
RMM:   3    -0.919458567235E+02   -0.45475E-11    0.00000E+00   162   0.133E-05    0.246E-05
RMM:   4    -0.919458567235E+02   -0.27285E-11    0.00000E+00   137   0.133E-05    0.246E-05
RMM:   5    -0.919458567235E+02    0.36380E-11    0.00000E+00   134   0.133E-05
  27 F= -.91945857E+02 E0= -.91945857E+02  d E =-.294858E-08
       N       E                     dE             d eps       ncg     rms          rms(c)
DAV:   1    -0.919458567235E+02   -0.18190E-11    0.19252E-11  6520   0.156E-05    0.247E-05
RMM:   2    -0.919458567235E+02   -0.54570E-11    0.00000E+00   301   0.714E-06    0.246E-05
RMM:   3    -0.919458567235E+02    0.18190E-11    0.00000E+00   156   0.724E-06    0.246E-05
RMM:   4    -0.919458567235E+02   -0.18190E-11    0.00000E+00   136   0.725E-06    0.246E-05
RMM:   5    -0.919458567235E+02   -0.18190E-11    0.00000E+00   131   0.726E-06
  28 F= -.91945857E+02 E0= -.91945857E+02  d E =-.296131E-08
       N       E                     dE             d eps       ncg     rms          rms(c)
DAV:   1    -0.919458567235E+02   -0.18190E-11    0.31625E-11  6432   0.885E-06    0.246E-05
RMM:   2    -0.919458567235E+02    0.63665E-11    0.00000E+00   200   0.485E-06    0.246E-05
RMM:   3    -0.919458567235E+02    0.00000E+00    0.00000E+00   135   0.498E-06    0.246E-05
RMM:   4    -0.919458567235E+02   -0.90949E-12    0.00000E+00   131   0.501E-06    0.246E-05
RMM:   5    -0.919458567235E+02   -0.27285E-11    0.00000E+00   125   0.501E-06
  29 F= -.91945857E+02 E0= -.91945857E+02  d E =-.295859E-08
       N       E                     dE             d eps       ncg     rms          rms(c)
DAV:   1    -0.919458567235E+02   -0.45475E-11    0.34482E-11  6448   0.616E-06    0.246E-05
RMM:   2    -0.919458567235E+02   -0.45475E-11    0.00000E+00   207   0.325E-06    0.246E-05
RMM:   3    -0.919458567235E+02    0.36380E-11    0.00000E+00   134   0.332E-06    0.246E-05
RMM:   4    -0.919458567235E+02   -0.27285E-11    0.00000E+00   127   0.334E-06    0.246E-05
RMM:   5    -0.919458567235E+02    0.00000E+00    0.00000E+00   127   0.334E-06
  30 F= -.91945857E+02 E0= -.91945857E+02  d E =-.296404E-08
       N       E                     dE             d eps       ncg     rms          rms(c)
DAV:   1    -0.919458567235E+02   -0.90949E-11    0.36242E-11  6400   0.356E-06    0.246E-05
RMM:   2    -0.919458567235E+02    0.54570E-11    0.00000E+00   181   0.191E-06    0.246E-05
RMM:   3    -0.919458567235E+02    0.18190E-11    0.00000E+00   131   0.198E-06    0.246E-05
RMM:   4    -0.919458567235E+02   -0.27285E-11    0.00000E+00   125   0.199E-06    0.246E-05
RMM:   5    -0.919458567235E+02    0.45475E-11    0.00000E+00   125   0.199E-06
  31 F= -.91945857E+02 E0= -.91945857E+02  d E =-.296404E-08
       N       E                     dE             d eps       ncg     rms          rms(c)
DAV:   1    -0.919458567235E+02    0.27285E-10    0.36479E-11  6408   0.221E-06    0.246E-05
RMM:   2    -0.919458567235E+02   -0.14552E-10    0.00000E+00   175   0.126E-06    0.246E-05
RMM:   3    -0.919458567235E+02   -0.90949E-12    0.00000E+00   131   0.130E-06    0.246E-05
RMM:   4    -0.919458567235E+02   -0.27285E-11    0.00000E+00   125   0.131E-06    0.246E-05
RMM:   5    -0.919458567235E+02    0.18190E-11    0.00000E+00   122   0.131E-06
  32 F= -.91945857E+02 E0= -.91945857E+02  d E =-.295768E-08
       N       E                     dE             d eps       ncg     rms          rms(c)
DAV:   1    -0.919458567236E+02   -0.45475E-10    0.37173E-11  6400   0.136E-06    0.246E-05
RMM:   2    -0.919458567235E+02    0.41837E-10    0.00000E+00   165   0.718E-07    0.246E-05
RMM:   3    -0.919458567235E+02    0.90949E-12    0.00000E+00   128   0.746E-07    0.246E-05
RMM:   4    -0.919458567235E+02    0.36380E-11    0.00000E+00   124   0.747E-07    0.246E-05
RMM:   5    -0.919458567235E+02   -0.27285E-11    0.00000E+00   123   0.747E-07
  33 F= -.91945857E+02 E0= -.91945857E+02  d E =-.296131E-08
       N       E                     dE             d eps       ncg     rms          rms(c)
DAV:   1    -0.919458567235E+02    0.31832E-10    0.37072E-11  6384   0.795E-07    0.246E-05
RMM:   2    -0.919458567235E+02   -0.26375E-10    0.00000E+00   162   0.459E-07    0.246E-05
RMM:   3    -0.919458567235E+02   -0.18190E-11    0.00000E+00   127   0.473E-07    0.246E-05
RMM:   4    -0.919458567235E+02   -0.27285E-11    0.00000E+00   126   0.476E-07    0.246E-05
RMM:   5    -0.919458567235E+02    0.00000E+00    0.00000E+00   125   0.476E-07
  34 F= -.91945857E+02 E0= -.91945857E+02  d E =-.295768E-08
       N       E                     dE             d eps       ncg     rms          rms(c)
DAV:   1    -0.919458567235E+02   -0.20009E-10    0.36978E-11  6392   0.485E-07    0.246E-05
RMM:   2    -0.919458567235E+02    0.18190E-10    0.00000E+00   160   0.255E-07    0.246E-05
RMM:   3    -0.919458567235E+02   -0.90949E-12    0.00000E+00   129   0.265E-07    0.246E-05
RMM:   4    -0.919458567235E+02    0.90949E-12    0.00000E+00   124   0.265E-07    0.246E-05
RMM:   5    -0.919458567235E+02   -0.54570E-11    0.00000E+00   123   0.265E-07
  35 F= -.91945857E+02 E0= -.91945857E+02  d E =-.296495E-08
       N       E                     dE             d eps       ncg     rms          rms(c)
DAV:   1    -0.919458567235E+02   -0.27285E-11    0.37254E-11  6360   0.275E-07    0.246E-05
RMM:   2    -0.919458567235E+02    0.90949E-12    0.00000E+00   157   0.160E-07    0.246E-05
RMM:   3    -0.919458567235E+02    0.36380E-11    0.00000E+00   126   0.165E-07    0.246E-05
RMM:   4    -0.919458567235E+02   -0.36380E-11    0.00000E+00   123   0.167E-07    0.246E-05
RMM:   5    -0.919458567235E+02    0.18190E-11    0.00000E+00   121   0.167E-07
  36 F= -.91945857E+02 E0= -.91945857E+02  d E =-.295950E-08
       N       E                     dE             d eps       ncg     rms          rms(c)
DAV:   1    -0.919458567235E+02   -0.90949E-11    0.37248E-11  6360   0.168E-07    0.246E-05
RMM:   2    -0.919458567235E+02    0.90949E-11    0.00000E+00   153   0.883E-08    0.246E-05
RMM:   3    -0.919458567235E+02    0.00000E+00    0.00000E+00   127   0.917E-08    0.246E-05
RMM:   4    -0.919458567235E+02   -0.90949E-12    0.00000E+00   123   0.917E-08    0.246E-05
RMM:   5    -0.919458567235E+02    0.27285E-11    0.00000E+00   121   0.917E-08
  37 F= -.91945857E+02 E0= -.91945857E+02  d E =-.295950E-08
       N       E                     dE             d eps       ncg     rms          rms(c)
DAV:   1    -0.919458567235E+02    0.27285E-10    0.37178E-11  6336   0.940E-08    0.246E-05
RMM:   2    -0.919458567235E+02   -0.27285E-10    0.00000E+00   148   0.552E-08    0.246E-05
RMM:   3    -0.919458567235E+02    0.00000E+00    0.00000E+00   125   0.570E-08    0.246E-05
RMM:   4    -0.919458567235E+02    0.00000E+00    0.00000E+00   122   0.574E-08    0.246E-05
RMM:   5    -0.919458567235E+02    0.27285E-11    0.00000E+00   120   0.574E-08
  38 F= -.91945857E+02 E0= -.91945857E+02  d E =-.295950E-08
       N       E                     dE             d eps       ncg     rms          rms(c)
DAV:   1    -0.919458567235E+02    0.46384E-10    0.36997E-11  6328   0.576E-08    0.246E-05
RMM:   2    -0.919458567235E+02   -0.53660E-10    0.00000E+00   145   0.304E-08    0.246E-05
RMM:   3    -0.919458567235E+02    0.45475E-11    0.00000E+00   125   0.316E-08    0.246E-05
RMM:   4    -0.919458567235E+02   -0.27285E-11    0.00000E+00   121   0.316E-08    0.246E-05
RMM:   5    -0.919458567235E+02   -0.27285E-11    0.00000E+00   118   0.316E-08
  39 F= -.91945857E+02 E0= -.91945857E+02  d E =-.297041E-08
       N       E                     dE             d eps       ncg     rms          rms(c)
DAV:   1    -0.919458567235E+02    0.00000E+00    0.37389E-11  6312   0.321E-08    0.246E-05
RMM:   2    -0.919458567235E+02    0.90949E-12    0.00000E+00   144   0.190E-08    0.246E-05
RMM:   3    -0.919458567235E+02   -0.27285E-11    0.00000E+00   123   0.196E-08    0.246E-05
RMM:   4    -0.919458567235E+02   -0.90949E-12    0.00000E+00   118   0.197E-08    0.246E-05
RMM:   5    -0.919458567235E+02   -0.18190E-11    0.00000E+00   116   0.197E-08
  40 F= -.91945857E+02 E0= -.91945857E+02  d E =-.297223E-08
       N       E                     dE             d eps       ncg     rms          rms(c)
DAV:   1    -0.919458567235E+02    0.65484E-10    0.36969E-11  6288   0.198E-08    0.246E-05
RMM:   2    -0.919458567235E+02   -0.49113E-10    0.00000E+00   139   0.105E-08    0.246E-05
RMM:   3    -0.919458567235E+02    0.00000E+00    0.00000E+00   121   0.109E-08    0.246E-05
RMM:   4    -0.919458567235E+02    0.90949E-12    0.00000E+00   114   0.109E-08    0.246E-05
RMM:   5    -0.919458567235E+02    0.27285E-11    0.00000E+00   111   0.109E-08
  41 F= -.91945857E+02 E0= -.91945857E+02  d E =-.295040E-08
       N       E                     dE             d eps       ncg     rms          rms(c)
DAV:   1    -0.919458567200E+02    0.35498E-08   -0.88529E-08 10440   0.100E-03    0.140E-04
RMM:   2    -0.919458567203E+02   -0.37926E-09   -0.72069E-09  5429   0.326E-04    0.588E-05
RMM:   3    -0.919458567205E+02   -0.17008E-09   -0.86355E-10  4997   0.132E-04    0.386E-05
RMM:   4    -0.919458567205E+02   -0.19099E-10   -0.56497E-11   842   0.637E-05    0.263E-05
RMM:   5    -0.919458567205E+02    0.00000E+00   -0.22135E-12   323   0.598E-05
  42 F= -.91945857E+02 E0= -.91945857E+02  d E =0.281943E-10
