<?xml version="1.0" encoding="ISO-8859-1"?>
<modeling>
 <generator>
  <i name="program" type="string">vasp </i>
  <i name="version" type="string">6.3.0  </i>
  <i name="subversion" type="string">20Jan22 (build Feb 21 2022 11:18:28) complex                          parallel </i>
  <i name="platform" type="string">CrayXC_GCC_OMP </i>
  <i name="date" type="string">2023 10 03 </i>
  <i name="time" type="string">01:56:40 </i>
 </generator>
 <incar>
  <i type="int" name="ISTART">     1</i>
  <i type="string" name="PREC">Accurate  (Precision level)</i>
  <i type="string" name="ALGO">FAST      (SCF minimisation algorithm</i>
  <i type="logical" name="ADDGRID"> T  </i>
  <i type="int" name="ISPIN">     1</i>
  <i type="int" name="INIWAV">     1</i>
  <i type="int" name="NELM">   500</i>
  <i type="int" name="NELMIN">     5</i>
  <i type="int" name="IBRION">     2</i>
  <i name="EDIFF">      0.00000001</i>
  <i name="EDIFFG">     -0.00000010</i>
  <i type="int" name="NSW">   200</i>
  <i type="int" name="ISIF">     2</i>
  <i type="int" name="ISYM">     2</i>
  <i type="int" name="NBLOCK">     1</i>
  <i name="ENMAX">    600.00000000</i>
  <i type="int" name="NEDOS">  1000</i>
  <i type="logical" name="LREAL"> F  </i>
  <i type="logical" name="LPLANE"> T  </i>
  <i type="int" name="ISMEAR">     0</i>
  <i name="SIGMA">      0.01000000</i>
  <i type="int" name="NWRITE">     2</i>
  <i type="int" name="LMAXMIX">     4</i>
  <i type="int" name="LORBIT">    11</i>
  <i type="int" name="ICORELEVEL">     1</i>
  <i type="string" name="GGA">PS     (PBEsol exchange-correlation)</i>
 </incar>
 <primitive_cell>
  <structure name="primitive_cell" >
   <crystal>
    <varray name="basis" >
     <v>       0.00000000       5.43581180       5.43581180 </v>
     <v>       5.43581180       0.00000000       5.43581180 </v>
     <v>       5.43581180       5.43581180       0.00000000 </v>
    </varray>
    <i name="volume">    321.23527682 </i>
    <varray name="rec_basis" >
     <v>      -0.09198258       0.09198258       0.09198258 </v>
     <v>       0.09198258      -0.09198258       0.09198258 </v>
     <v>       0.09198258       0.09198258      -0.09198258 </v>
    </varray>
   </crystal>
   <varray name="positions" >
    <v>       0.12559428       0.12544069       0.12529412 </v>
    <v>       0.62492188       0.12490423       0.12595270 </v>
    <v>       0.12474603       0.62495754       0.12554301 </v>
    <v>       0.62568377       0.62443573       0.12445031 </v>
    <v>       0.12484131       0.12586265       0.62587769 </v>
    <v>       0.62517214       0.12474251       0.62552643 </v>
    <v>       0.12520280       0.62540766       0.62528821 </v>
    <v>       0.62538577       0.62560848       0.62545670 </v>
    <v>       0.99985281       0.00089526       0.00045304 </v>
    <v>       0.49948385       0.99976920       0.00064355 </v>
    <v>       0.99953963       0.50038148       0.00034469 </v>
    <v>       0.50045390       0.50065763       0.99965620 </v>
    <v>       0.99992529       0.00041396       0.50016771 </v>
    <v>       0.50036506       0.99947814       0.50077689 </v>
    <v>       0.99957831       0.49947040       0.50076889 </v>
    <v>       0.49979694       0.49963581       0.50086376 </v>
   </varray>
  </structure>
  <varray name="primitive_index" >
   <v type="int" >        1 </v>
   <v type="int" >        2 </v>
   <v type="int" >        3 </v>
   <v type="int" >        4 </v>
   <v type="int" >        5 </v>
   <v type="int" >        6 </v>
   <v type="int" >        7 </v>
   <v type="int" >        8 </v>
   <v type="int" >        9 </v>
   <v type="int" >       10 </v>
   <v type="int" >       11 </v>
   <v type="int" >       12 </v>
   <v type="int" >       13 </v>
   <v type="int" >       14 </v>
   <v type="int" >       15 </v>
   <v type="int" >       16 </v>
  </varray>
 </primitive_cell>
 <kpoints>
  <generation param="Gamma">
   <v type="int" name="divisions">       6        6        6 </v>
   <v name="usershift">      0.00000000       0.00000000       0.00000000 </v>
   <v name="genvec1">      0.16666667       0.00000000      -0.00000000 </v>
   <v name="genvec2">      0.00000000       0.16666667       0.00000000 </v>
   <v name="genvec3">     -0.00000000      -0.00000000       0.16666667 </v>
   <v name="shift">      0.00000000       0.00000000       0.00000000 </v>
  </generation>
  <varray name="kpointlist" >
   <v>       0.00000000       0.00000000       0.00000000 </v>
   <v>       0.16666667       0.00000000       0.00000000 </v>
   <v>       0.00000000       0.16666667       0.00000000 </v>
   <v>       0.00000000       0.00000000       0.16666667 </v>
   <v>       0.16666667       0.16666667       0.16666667 </v>
   <v>       0.33333333       0.00000000       0.00000000 </v>
   <v>       0.00000000       0.33333333       0.00000000 </v>
   <v>       0.00000000       0.00000000       0.33333333 </v>
   <v>       0.33333333       0.33333333       0.33333333 </v>
   <v>       0.50000000       0.00000000       0.00000000 </v>
   <v>       0.00000000       0.50000000       0.00000000 </v>
   <v>       0.00000000       0.00000000       0.50000000 </v>
   <v>       0.50000000       0.50000000       0.50000000 </v>
   <v>       0.16666667       0.16666667       0.00000000 </v>
   <v>       0.00000000       0.16666667       0.16666667 </v>
   <v>       0.16666667       0.00000000       0.16666667 </v>
   <v>       0.33333333       0.16666667       0.00000000 </v>
   <v>       0.00000000       0.33333333       0.16666667 </v>
   <v>       0.16666667       0.00000000       0.33333333 </v>
   <v>       0.16666667       0.16666667      -0.16666667 </v>
   <v>       0.33333333       0.16666667       0.33333333 </v>
   <v>       0.16666667       0.33333333       0.00000000 </v>
   <v>       0.16666667      -0.16666667      -0.16666667 </v>
   <v>       0.33333333       0.33333333       0.16666667 </v>
   <v>       0.00000000       0.16666667       0.33333333 </v>
   <v>      -0.16666667       0.16666667      -0.16666667 </v>
   <v>       0.16666667       0.33333333       0.33333333 </v>
   <v>       0.33333333       0.00000000       0.16666667 </v>
   <v>       0.50000000       0.16666667       0.00000000 </v>
   <v>       0.00000000       0.50000000       0.16666667 </v>
   <v>       0.16666667       0.00000000       0.50000000 </v>
   <v>       0.16666667       0.16666667      -0.33333333 </v>
   <v>       0.50000000       0.33333333       0.50000000 </v>
   <v>       0.16666667       0.50000000       0.00000000 </v>
   <v>       0.33333333      -0.16666667      -0.16666667 </v>
   <v>       0.50000000       0.50000000       0.33333333 </v>
   <v>       0.00000000       0.16666667       0.50000000 </v>
   <v>      -0.16666667       0.33333333      -0.16666667 </v>
   <v>       0.33333333       0.50000000       0.50000000 </v>
   <v>       0.50000000       0.00000000       0.16666667 </v>
   <v>      -0.33333333       0.16666667       0.00000000 </v>
   <v>       0.00000000      -0.33333333       0.16666667 </v>
   <v>       0.16666667       0.00000000      -0.33333333 </v>
   <v>       0.16666667       0.16666667       0.50000000 </v>
   <v>      -0.33333333       0.50000000      -0.33333333 </v>
   <v>       0.16666667      -0.33333333       0.00000000 </v>
   <v>       0.50000000      -0.16666667      -0.16666667 </v>
   <v>      -0.33333333      -0.33333333       0.50000000 </v>
   <v>       0.00000000       0.16666667      -0.33333333 </v>
   <v>      -0.16666667       0.50000000      -0.16666667 </v>
   <v>       0.50000000      -0.33333333      -0.33333333 </v>
   <v>      -0.33333333       0.00000000       0.16666667 </v>
   <v>      -0.16666667       0.16666667       0.00000000 </v>
   <v>       0.00000000      -0.16666667       0.16666667 </v>
   <v>       0.16666667       0.00000000      -0.16666667 </v>
   <v>       0.16666667       0.16666667       0.33333333 </v>
   <v>      -0.16666667      -0.33333333      -0.16666667 </v>
   <v>      -0.33333333      -0.16666667      -0.16666667 </v>
   <v>       0.33333333       0.33333333       0.00000000 </v>
   <v>       0.00000000       0.33333333       0.33333333 </v>
   <v>       0.33333333       0.00000000       0.33333333 </v>
   <v>       0.50000000       0.33333333       0.00000000 </v>
   <v>       0.00000000       0.50000000       0.33333333 </v>
   <v>       0.33333333       0.00000000       0.50000000 </v>
   <v>       0.33333333       0.33333333      -0.16666667 </v>
   <v>       0.50000000       0.16666667       0.50000000 </v>
   <v>       0.33333333       0.50000000       0.00000000 </v>
   <v>       0.16666667      -0.33333333      -0.33333333 </v>
   <v>       0.50000000       0.50000000       0.16666667 </v>
   <v>       0.00000000       0.33333333       0.50000000 </v>
   <v>      -0.33333333       0.16666667      -0.33333333 </v>
   <v>       0.16666667       0.50000000       0.50000000 </v>
   <v>       0.50000000       0.00000000       0.33333333 </v>
   <v>      -0.33333333       0.33333333       0.00000000 </v>
   <v>       0.00000000      -0.33333333       0.33333333 </v>
   <v>       0.33333333       0.00000000      -0.33333333 </v>
   <v>       0.33333333       0.33333333      -0.33333333 </v>
   <v>      -0.33333333       0.33333333      -0.33333333 </v>
   <v>       0.33333333      -0.33333333      -0.33333333 </v>
   <v>       0.50000000       0.50000000       0.00000000 </v>
   <v>       0.00000000       0.50000000       0.50000000 </v>
   <v>       0.50000000       0.00000000       0.50000000 </v>
   <v>       0.50000000       0.33333333       0.16666667 </v>
   <v>       0.16666667       0.50000000       0.33333333 </v>
   <v>       0.33333333       0.16666667       0.50000000 </v>
   <v>       0.33333333       0.16666667      -0.16666667 </v>
   <v>       0.50000000       0.16666667       0.33333333 </v>
   <v>       0.16666667      -0.33333333      -0.16666667 </v>
   <v>       0.16666667       0.33333333      -0.16666667 </v>
   <v>       0.16666667      -0.16666667      -0.33333333 </v>
   <v>       0.33333333       0.50000000       0.16666667 </v>
   <v>      -0.16666667       0.16666667      -0.33333333 </v>
   <v>      -0.33333333       0.16666667      -0.16666667 </v>
   <v>       0.16666667       0.33333333       0.50000000 </v>
   <v>      -0.33333333       0.33333333       0.16666667 </v>
   <v>       0.16666667      -0.33333333       0.33333333 </v>
   <v>       0.33333333       0.16666667      -0.33333333 </v>
   <v>      -0.33333333       0.33333333       0.50000000 </v>
   <v>       0.16666667       0.50000000      -0.16666667 </v>
   <v>       0.33333333      -0.16666667      -0.33333333 </v>
   <v>       0.50000000      -0.33333333       0.33333333 </v>
   <v>      -0.16666667       0.16666667       0.50000000 </v>
   <v>      -0.33333333       0.33333333      -0.16666667 </v>
   <v>       0.33333333       0.50000000      -0.33333333 </v>
   <v>       0.50000000      -0.16666667       0.16666667 </v>
   <v>      -0.16666667      -0.33333333       0.33333333 </v>
   <v>      -0.33333333       0.50000000       0.16666667 </v>
   <v>       0.16666667      -0.33333333       0.50000000 </v>
   <v>       0.50000000       0.16666667      -0.33333333 </v>
   <v>       0.50000000       0.33333333      -0.16666667 </v>
   <v>      -0.33333333       0.16666667       0.50000000 </v>
   <v>       0.16666667       0.50000000      -0.33333333 </v>
  </varray>
  <varray name="weights" >
   <v>       0.00462963 </v>
   <v>       0.00925926 </v>
   <v>       0.00925926 </v>
   <v>       0.00925926 </v>
   <v>       0.00925926 </v>
   <v>       0.00925926 </v>
   <v>       0.00925926 </v>
   <v>       0.00925926 </v>
   <v>       0.00925926 </v>
   <v>       0.00462963 </v>
   <v>       0.00462963 </v>
   <v>       0.00462963 </v>
   <v>       0.00462963 </v>
   <v>       0.00925926 </v>
   <v>       0.00925926 </v>
   <v>       0.00925926 </v>
   <v>       0.00925926 </v>
   <v>       0.00925926 </v>
   <v>       0.00925926 </v>
   <v>       0.00925926 </v>
   <v>       0.00925926 </v>
   <v>       0.00925926 </v>
   <v>       0.00925926 </v>
   <v>       0.00925926 </v>
   <v>       0.00925926 </v>
   <v>       0.00925926 </v>
   <v>       0.00925926 </v>
   <v>       0.00925926 </v>
   <v>       0.00925926 </v>
   <v>       0.00925926 </v>
   <v>       0.00925926 </v>
   <v>       0.00925926 </v>
   <v>       0.00925926 </v>
   <v>       0.00925926 </v>
   <v>       0.00925926 </v>
   <v>       0.00925926 </v>
   <v>       0.00925926 </v>
   <v>       0.00925926 </v>
   <v>       0.00925926 </v>
   <v>       0.00925926 </v>
   <v>       0.00925926 </v>
   <v>       0.00925926 </v>
   <v>       0.00925926 </v>
   <v>       0.00925926 </v>
   <v>       0.00925926 </v>
   <v>       0.00925926 </v>
   <v>       0.00925926 </v>
   <v>       0.00925926 </v>
   <v>       0.00925926 </v>
   <v>       0.00925926 </v>
   <v>       0.00925926 </v>
   <v>       0.00925926 </v>
   <v>       0.00925926 </v>
   <v>       0.00925926 </v>
   <v>       0.00925926 </v>
   <v>       0.00925926 </v>
   <v>       0.00925926 </v>
   <v>       0.00925926 </v>
   <v>       0.00925926 </v>
   <v>       0.00925926 </v>
   <v>       0.00925926 </v>
   <v>       0.00925926 </v>
   <v>       0.00925926 </v>
   <v>       0.00925926 </v>
   <v>       0.00925926 </v>
   <v>       0.00925926 </v>
   <v>       0.00925926 </v>
   <v>       0.00925926 </v>
   <v>       0.00925926 </v>
   <v>       0.00925926 </v>
   <v>       0.00925926 </v>
   <v>       0.00925926 </v>
   <v>       0.00925926 </v>
   <v>       0.00925926 </v>
   <v>       0.00925926 </v>
   <v>       0.00925926 </v>
   <v>       0.00925926 </v>
   <v>       0.00925926 </v>
   <v>       0.00925926 </v>
   <v>       0.00462963 </v>
   <v>       0.00462963 </v>
   <v>       0.00462963 </v>
   <v>       0.00925926 </v>
   <v>       0.00925926 </v>
   <v>       0.00925926 </v>
   <v>       0.00925926 </v>
   <v>       0.00925926 </v>
   <v>       0.00925926 </v>
   <v>       0.00925926 </v>
   <v>       0.00925926 </v>
   <v>       0.00925926 </v>
   <v>       0.00925926 </v>
   <v>       0.00925926 </v>
   <v>       0.00925926 </v>
   <v>       0.00925926 </v>
   <v>       0.00925926 </v>
   <v>       0.00925926 </v>
   <v>       0.00925926 </v>
   <v>       0.00925926 </v>
   <v>       0.00925926 </v>
   <v>       0.00925926 </v>
   <v>       0.00925926 </v>
   <v>       0.00925926 </v>
   <v>       0.00925926 </v>
   <v>       0.00925926 </v>
   <v>       0.00925926 </v>
   <v>       0.00925926 </v>
   <v>       0.00925926 </v>
   <v>       0.00925926 </v>
   <v>       0.00925926 </v>
   <v>       0.00925926 </v>
   <v>       0.00925926 </v>
  </varray>
 </kpoints>
 <parameters>
  <separator name="general" >
   <i type="string" name="SYSTEM">unknown system</i>
   <i type="logical" name="LCOMPAT"> F  </i>
  </separator>
  <separator name="electronic" >
   <i type="string" name="PREC">accura</i>
   <i name="ENMAX">    600.00000000</i>
   <i name="ENAUG">    322.06900000</i>
   <i name="EDIFF">      0.00000001</i>
   <i type="int" name="IALGO">    68</i>
   <i type="int" name="IWAVPR">    11</i>
   <i type="int" name="NBANDS">    48</i>
   <i type="int" name="NBANDSLOW">    -1</i>
   <i type="int" name="NBANDSHIGH">    -1</i>
   <i name="NELECT">     64.00000000</i>
   <i type="int" name="TURBO">     0</i>
   <i type="int" name="IRESTART">     0</i>
   <i type="int" name="NREBOOT">     0</i>
   <i type="int" name="NMIN">     0</i>
   <i name="EREF">      0.00000000</i>
   <separator name="electronic smearing" >
    <i type="int" name="ISMEAR">     0</i>
    <i name="SIGMA">      0.01000000</i>
    <i name="KSPACING">      0.50000000</i>
    <i type="logical" name="KGAMMA"> T  </i>
    <i type="logical" name="KBLOWUP"> T  </i>
   </separator>
   <separator name="electronic projectors" >
    <i type="logical" name="LREAL"> F  </i>
    <v name="ROPT">      0.00000000</v>
    <i type="int" name="LMAXPAW">  -100</i>
    <i type="int" name="LMAXMIX">     4</i>
    <i type="logical" name="NLSPLINE"> F  </i>
   </separator>
   <separator name="electronic startup" >
    <i type="int" name="ISTART">     0</i>
    <i type="int" name="ICHARG">     2</i>
    <i type="int" name="INIWAV">     1</i>
   </separator>
   <separator name="electronic spin" >
    <i type="int" name="ISPIN">     1</i>
    <i type="logical" name="LNONCOLLINEAR"> F  </i>
    <v name="MAGMOM">      1.00000000      1.00000000      1.00000000      1.00000000      1.00000000      1.00000000      1.00000000      1.00000000      1.00000000      1.00000000      1.00000000      1.00000000      1.00000000      1.00000000      1.00000000      1.00000000</v>
    <i name="NUPDOWN">     -1.00000000</i>
    <i type="logical" name="LSORBIT"> F  </i>
    <v name="SAXIS">      0.00000000      0.00000000      1.00000000</v>
    <i type="logical" name="LSPIRAL"> F  </i>
    <v name="QSPIRAL">      0.00000000      0.00000000      0.00000000</v>
    <i type="logical" name="LZEROZ"> F  </i>
   </separator>
   <separator name="electronic exchange-correlation" >
    <i type="logical" name="LASPH"> F  </i>
    <i type="logical" name="LMETAGGA"> F  </i>
   </separator>
   <separator name="electronic convergence" >
    <i type="int" name="NELM">   500</i>
    <i type="int" name="NELMDL">     0</i>
    <i type="int" name="NELMIN">     5</i>
    <i name="ENINI">    600.00000000</i>
    <separator name="electronic convergence detail" >
     <i type="logical" name="LDIAG"> T  </i>
     <i type="logical" name="LSUBROT"> F  </i>
     <i name="WEIMIN">      0.00100000</i>
     <i name="EBREAK">      0.00000000</i>
     <i name="DEPER">      0.30000000</i>
     <i type="int" name="NRMM">     4</i>
     <i name="TIME">      0.40000000</i>
    </separator>
   </separator>
   <separator name="electronic mixer" >
    <i name="AMIX">      0.40000000</i>
    <i name="BMIX">      1.00000000</i>
    <i name="AMIN">      0.10000000</i>
    <i name="AMIX_MAG">      1.60000000</i>
    <i name="BMIX_MAG">      1.00000000</i>
    <separator name="electronic mixer details" >
     <i type="int" name="IMIX">     4</i>
     <i type="logical" name="MIXFIRST"> F  </i>
     <i type="int" name="MAXMIX">   -45</i>
     <i name="WC">    100.00000000</i>
     <i type="int" name="INIMIX">     1</i>
     <i type="int" name="MIXPRE">     1</i>
     <i type="int" name="MREMOVE">     5</i>
    </separator>
   </separator>
   <separator name="electronic dipolcorrection" >
    <i type="logical" name="LDIPOL"> F  </i>
    <i type="logical" name="LMONO"> F  </i>
    <i type="int" name="IDIPOL">     0</i>
    <i name="EPSILON">      1.00000000</i>
    <v name="DIPOL">   -100.00000000   -100.00000000   -100.00000000</v>
    <i name="EFIELD">      0.00000000</i>
   </separator>
  </separator>
  <separator name="grids" >
   <i type="int" name="NGX">    64</i>
   <i type="int" name="NGY">    64</i>
   <i type="int" name="NGZ">    64</i>
   <i type="int" name="NGXF">   128</i>
   <i type="int" name="NGYF">   128</i>
   <i type="int" name="NGZF">   128</i>
   <i type="logical" name="ADDGRID"> T  </i>
  </separator>
  <separator name="ionic" >
   <i type="int" name="NSW">   200</i>
   <i type="int" name="IBRION">     2</i>
   <i type="int" name="MDALGO">     0</i>
   <i type="int" name="ISIF">     2</i>
   <i name="PSTRESS">      0.00000000</i>
   <i name="EDIFFG">     -0.00000010</i>
   <i type="int" name="NFREE">     1</i>
   <i name="POTIM">      0.50000000</i>
   <i name="SMASS">     -3.00000000</i>
   <i name="SCALEE">      1.00000000</i>
  </separator>
  <separator name="ionic md" >
   <i name="TEBEG">      0.00010000</i>
   <i name="TEEND">      0.00010000</i>
   <i type="int" name="NBLOCK">     1</i>
   <i type="int" name="KBLOCK">   200</i>
   <i type="int" name="NPACO">   256</i>
   <i name="APACO">     10.00000000</i>
  </separator>
  <separator name="symmetry" >
   <i type="int" name="ISYM">     2</i>
   <i name="SYMPREC">      0.00001000</i>
  </separator>
  <separator name="dos" >
   <i type="int" name="LORBIT">    11</i>
   <v name="RWIGS">     -1.00000000</v>
   <i type="int" name="NEDOS">  1000</i>
   <i name="EMIN">     10.00000000</i>
   <i name="EMAX">    -10.00000000</i>
   <i name="EFERMI">      0.00000000</i>
  </separator>
  <separator name="writing" >
   <i type="int" name="NWRITE">     2</i>
   <i type="logical" name="LWAVE"> T  </i>
   <i type="logical" name="LDOWNSAMPLE"> F  </i>
   <i type="logical" name="LCHARG"> T  </i>
   <i type="logical" name="LPARD"> F  </i>
   <i type="logical" name="LVTOT"> F  </i>
   <i type="logical" name="LVHAR"> F  </i>
   <i type="logical" name="LELF"> F  </i>
   <i type="logical" name="LOPTICS"> F  </i>
   <v name="STM">      0.00000000      0.00000000      0.00000000      0.00000000      0.00000000      0.00000000      0.00000000</v>
  </separator>
  <separator name="performance" >
   <i type="int" name="NPAR">     8</i>
   <i type="int" name="NSIM">     4</i>
   <i type="int" name="NBLK">    -1</i>
   <i type="logical" name="LPLANE"> T  </i>
   <i type="logical" name="LSCALAPACK"> T  </i>
   <i type="logical" name="LSCAAWARE"> F  </i>
   <i type="logical" name="LSCALU"> F  </i>
   <i type="logical" name="LASYNC"> F  </i>
   <i type="logical" name="LORBITALREAL"> F  </i>
  </separator>
  <separator name="miscellaneous" >
   <i type="int" name="IDIOT">     3</i>
   <i type="int" name="PHON_NSTRUCT">    -1</i>
   <i type="logical" name="LMUSIC"> F  </i>
   <v name="POMASS">     28.08500000</v>
   <v name="DARWINR">      0.00000000</v>
   <v name="DARWINV">      1.00000000</v>
   <i type="logical" name="LCORR"> T  </i>
  </separator>
  <i type="logical" name="GGA_COMPAT"> T  </i>
  <i type="logical" name="LBERRY"> F  </i>
  <i type="int" name="ICORELEVEL">     1</i>
  <i type="int" name="CLNT">     1</i>
  <i type="int" name="CLN">     1</i>
  <i type="int" name="CLL">     0</i>
  <i name="CLZ">      0.00000000</i>
  <i type="logical" name="LDAU"> F  </i>
  <i type="int" name="I_CONSTRAINED_M">     0</i>
  <separator name="electronic exchange-correlation" >
   <i type="string" name="GGA">PS</i>
   <i type="int" name="VOSKOWN">     0</i>
   <i type="logical" name="LHFCALC"> F  </i>
   <i type="string" name="PRECFOCK"></i>
   <i type="logical" name="LSYMGRAD"> F  </i>
   <i type="logical" name="LHFONE"> F  </i>
   <i type="logical" name="LRHFCALC"> F  </i>
   <i type="logical" name="LTHOMAS"> F  </i>
   <i type="logical" name="LMODELHF"> F  </i>
   <i type="logical" name="LFOCKACE"> F  </i>
   <i name="ENCUT4O">     -1.00000000</i>
   <i type="int" name="EXXOEP">     0</i>
   <i type="int" name="FOURORBIT">     0</i>
   <i name="AEXX">      0.00000000</i>
   <i name="HFALPHA">      0.00000000</i>
   <i name="MCALPHA">      0.00000000</i>
   <i name="ALDAX">      1.00000000</i>
   <i name="AGGAX">      1.00000000</i>
   <i name="ALDAC">      1.00000000</i>
   <i name="AGGAC">      1.00000000</i>
   <i type="int" name="NKREDX">     1</i>
   <i type="int" name="NKREDY">     1</i>
   <i type="int" name="NKREDZ">     1</i>
   <i type="logical" name="SHIFTRED"> F  </i>
   <i type="logical" name="ODDONLY"> F  </i>
   <i type="logical" name="EVENONLY"> F  </i>
   <i type="int" name="LMAXFOCK">     0</i>
   <i type="int" name="NMAXFOCKAE">     0</i>
   <i type="logical" name="LFOCKAEDFT"> F  </i>
   <i name="HFSCREEN">      0.00000000</i>
   <i name="HFSCREENC">      0.00000000</i>
   <i type="int" name="NBANDSGWLOW">     0</i>
  </separator>
  <separator name="vdW DFT" >
   <i type="logical" name="LUSE_VDW"> F  </i>
   <i name="Zab_VDW">     -0.84910000</i>
   <i name="PARAM1">      0.12340000</i>
   <i name="PARAM2">      1.00000000</i>
   <i name="PARAM3">      0.00000000</i>
  </separator>
  <separator name="model GW" >
   <i type="int" name="MODEL_GW">     0</i>
   <i name="MODEL_EPS0">     12.04632288</i>
   <i name="MODEL_ALPHA">      1.00000000</i>
  </separator>
  <separator name="linear response parameters" >
   <i type="logical" name="LEPSILON"> F  </i>
   <i type="logical" name="LRPA"> F  </i>
   <i type="logical" name="LNABLA"> F  </i>
   <i type="logical" name="LVEL"> F  </i>
   <i name="CSHIFT">      0.10000000</i>
   <i name="OMEGAMAX">     -1.00000000</i>
   <i name="DEG_THRESHOLD">      0.00200000</i>
   <i name="RTIME">     -0.10000000</i>
   <i name="WPLASMAI">      0.00000000</i>
   <v name="DFIELD">      0.00000000      0.00000000      0.00000000</v>
   <v name="WPLASMA">      0.00000000      0.00000000      0.00000000      0.00000000      0.00000000      0.00000000      0.00000000      0.00000000      0.00000000</v>
  </separator>
  <separator name="orbital magnetization" >
   <i type="logical" name="NUCIND"> F  </i>
   <v name="MAGPOS">      0.00000000      0.00000000      0.00000000</v>
   <i type="logical" name="LNICSALL"> T  </i>
   <i type="logical" name="ORBITALMAG"> F  </i>
   <i type="logical" name="LMAGBLOCH"> F  </i>
   <i type="logical" name="LCHIMAG"> F  </i>
   <i type="logical" name="LGAUGE"> T  </i>
   <i type="int" name="MAGATOM">     0</i>
   <v name="MAGDIPOL">      0.00000000      0.00000000      0.00000000</v>
   <v name="AVECCONST">      0.00000000      0.00000000      0.00000000</v>
  </separator>
  <separator name="response functions" >
   <i type="logical" name="LFINITE_TEMPERATURE"> F  </i>
   <i type="logical" name="LADDER"> F  </i>
   <i type="logical" name="LRPAFORCE"> F  </i>
   <i type="logical" name="LFXC"> F  </i>
   <i type="logical" name="LHARTREE"> T  </i>
   <i type="int" name="IBSE">     0</i>
   <v type="int" name="KPOINT">    -1     0     0     0</v>
   <i type="logical" name="LTCTC"> F  </i>
   <i type="logical" name="LTCTE"> F  </i>
   <i type="logical" name="LTETE"> F  </i>
   <i type="logical" name="LTRIPLET"> F  </i>
   <i type="logical" name="LFXCEPS"> F  </i>
   <i type="logical" name="LFXHEG"> F  </i>
   <i type="int" name="NATURALO">     2</i>
   <i type="logical" name="LHOLEGF"> F  </i>
   <i type="logical" name="L2ORDER"> F  </i>
   <i type="logical" name="LDMP1"> F  </i>
   <i type="logical" name="LMP2LT"> F  </i>
   <i type="logical" name="LSMP2LT"> F  </i>
   <i type="logical" name="LGWLF"> F  </i>
   <i name="ENCUTGW">     -2.00000000</i>
   <i name="ENCUTGWSOFT">     -2.00000000</i>
   <i name="ENCUTLF">     -1.00000000</i>
   <i type="logical" name="LESF_SPLINES"> F  </i>
   <i type="int" name="LMAXMP2">    -1</i>
   <i name="SCISSOR">      0.00000000</i>
   <i type="int" name="NOMEGA">     0</i>
   <i type="int" name="NOMEGAR">     0</i>
   <i type="int" name="NBANDSGW">    -1</i>
   <i type="int" name="NBANDSO">    -1</i>
   <i type="int" name="NBANDSV">    -1</i>
   <i type="int" name="NELMGW">     1</i>
   <i type="int" name="NELMHF">     1</i>
   <i type="int" name="DIM">     3</i>
   <i type="int" name="IESPILON">     4</i>
   <i type="int" name="ANTIRES">     0</i>
   <i name="OMEGAMAX">    -30.00000000</i>
   <i name="OMEGAMIN">    -30.00000000</i>
   <i name="OMEGATL">   -200.00000000</i>
   <i type="int" name="OMEGAGRID">     0</i>
   <i name="CSHIFT">     -0.10000000</i>
   <i type="logical" name="LSELFENERGY"> F  </i>
   <i type="logical" name="LSPECTRAL"> F  </i>
   <i type="logical" name="LSPECTRALGW"> F  </i>
   <i type="logical" name="LSINGLES"> F  </i>
   <i type="logical" name="LFERMIGW"> F  </i>
   <i type="logical" name="ODDONLYGW"> F  </i>
   <i type="logical" name="EVENONLYGW"> F  </i>
   <i type="int" name="NKREDLFX">     1</i>
   <i type="int" name="NKREDLFY">     1</i>
   <i type="int" name="NKREDLFZ">     1</i>
   <i type="int" name="MAXMEM">  2800</i>
   <i type="int" name="TELESCOPE">     0</i>
   <i type="int" name="NTAUPAR">    -1</i>
   <i type="int" name="NOMEGAPAR">    -1</i>
   <i name="DAMP_NEWTON">      0.80000001</i>
   <i name="LAMBDA">      1.00000000</i>
  </separator>
  <separator name="External order field" >
   <i name="OFIELD_KAPPA">      0.00000000</i>
   <v name="OFIELD_K">      0.00000000      0.00000000      0.00000000</v>
   <i name="OFIELD_Q6_NEAR">      0.00000000</i>
   <i name="OFIELD_Q6_FAR">      0.00000000</i>
   <i name="OFIELD_A">      0.00000000</i>
  </separator>
  <separator name="optional k-points parameters" >
   <i type="int" name="KPOINTS_OPT_MODE">     1</i>
   <i type="logical" name="LKPOINTS_OPT"> F  </i>
  </separator>
 </parameters>
 <atominfo>
  <atoms>      16 </atoms>
  <types>       1 </types>
  <array name="atoms" >
   <dimension dim="1">ion</dimension>
   <field type="string">element</field>
   <field type="int">atomtype</field>
   <set>
    <rc><c>Si</c><c>   1</c></rc>
    <rc><c>Si</c><c>   1</c></rc>
    <rc><c>Si</c><c>   1</c></rc>
    <rc><c>Si</c><c>   1</c></rc>
    <rc><c>Si</c><c>   1</c></rc>
    <rc><c>Si</c><c>   1</c></rc>
    <rc><c>Si</c><c>   1</c></rc>
    <rc><c>Si</c><c>   1</c></rc>
    <rc><c>Si</c><c>   1</c></rc>
    <rc><c>Si</c><c>   1</c></rc>
    <rc><c>Si</c><c>   1</c></rc>
    <rc><c>Si</c><c>   1</c></rc>
    <rc><c>Si</c><c>   1</c></rc>
    <rc><c>Si</c><c>   1</c></rc>
    <rc><c>Si</c><c>   1</c></rc>
    <rc><c>Si</c><c>   1</c></rc>
   </set>
  </array>
  <array name="atomtypes" >
   <dimension dim="1">type</dimension>
   <field type="int">atomspertype</field>
   <field type="string">element</field>
   <field>mass</field>
   <field>valence</field>
   <field type="string">pseudopotential</field>
   <set>
    <rc><c>  16</c><c>Si</c><c>     28.08500000</c><c>      4.00000000</c><c>  PAW_PBE Si 05Jan2001                  </c></rc>
   </set>
  </array>
 </atominfo>
 <structure name="initialpos" >
  <crystal>
   <varray name="basis" >
    <v>       0.00000000       5.43581180       5.43581180 </v>
    <v>       5.43581180       0.00000000       5.43581180 </v>
    <v>       5.43581180       5.43581180       0.00000000 </v>
   </varray>
   <i name="volume">    321.23527682 </i>
   <varray name="rec_basis" >
    <v>      -0.09198258       0.09198258       0.09198258 </v>
    <v>       0.09198258      -0.09198258       0.09198258 </v>
    <v>       0.09198258       0.09198258      -0.09198258 </v>
   </varray>
  </crystal>
  <varray name="positions" >
   <v>       0.12559428       0.12544069       0.12529412 </v>
   <v>       0.62492188       0.12490423       0.12595270 </v>
   <v>       0.12474603       0.62495754       0.12554301 </v>
   <v>       0.62568377       0.62443573       0.12445031 </v>
   <v>       0.12484131       0.12586265       0.62587769 </v>
   <v>       0.62517214       0.12474251       0.62552643 </v>
   <v>       0.12520280       0.62540766       0.62528821 </v>
   <v>       0.62538577       0.62560848       0.62545670 </v>
   <v>       0.99985281       0.00089526       0.00045304 </v>
   <v>       0.49948385       0.99976920       0.00064355 </v>
   <v>       0.99953963       0.50038148       0.00034469 </v>
   <v>       0.50045390       0.50065763       0.99965620 </v>
   <v>       0.99992529       0.00041396       0.50016771 </v>
   <v>       0.50036506       0.99947814       0.50077689 </v>
   <v>       0.99957831       0.49947040       0.50076889 </v>
   <v>       0.49979694       0.49963581       0.50086376 </v>
  </varray>
 </structure>
 <calculation>
  <scstep>
   <time name="dav">    3.73    3.74</time>
   <time name="total">    3.84    3.84</time>
   <energy>
    <i name="alphaZ">     26.82694619 </i>
    <i name="ewald">  -1826.53984258 </i>
    <i name="hartreedc">    -88.40145522 </i>
    <i name="XCdc">   -139.73326323 </i>
    <i name="pawpsdc">   1399.65656354 </i>
    <i name="pawaedc">  -1123.04461034 </i>
    <i name="eentropy">     -0.00022131 </i>
    <i name="bandstr">    265.08778594 </i>
    <i name="atom">   1641.21197842 </i>
    <i name="e_fr_energy">    155.06388140 </i>
    <i name="e_wo_entrp">    155.06410272 </i>
    <i name="e_0_energy">    155.06399206 </i>
   </energy>
  </scstep>
  <scstep>
   <time name="dav">    4.26    4.28</time>
   <time name="total">    4.26    4.28</time>
   <energy>
    <i name="e_fr_energy">    -79.75475629 </i>
    <i name="e_wo_entrp">    -79.75475629 </i>
    <i name="e_0_energy">    -79.75475629 </i>
   </energy>
  </scstep>
  <scstep>
   <time name="dav">    4.47    4.48</time>
   <time name="total">    4.47    4.48</time>
   <energy>
    <i name="e_fr_energy">    -93.43416303 </i>
    <i name="e_wo_entrp">    -93.43416303 </i>
    <i name="e_0_energy">    -93.43416303 </i>
   </energy>
  </scstep>
  <scstep>
   <time name="dav">    4.43    4.44</time>
   <time name="total">    4.43    4.45</time>
   <energy>
    <i name="e_fr_energy">    -93.70719319 </i>
    <i name="e_wo_entrp">    -93.70719319 </i>
    <i name="e_0_energy">    -93.70719319 </i>
   </energy>
  </scstep>
  <scstep>
   <time name="dav">    4.29    4.30</time>
   <time name="total">    4.57    4.59</time>
   <energy>
    <i name="e_fr_energy">    -93.71431024 </i>
    <i name="e_wo_entrp">    -93.71431024 </i>
    <i name="e_0_energy">    -93.71431024 </i>
   </energy>
  </scstep>
  <scstep>
   <time name="diag">    1.24    1.24</time>
   <time name="diis">    1.99    1.99</time>
   <time name="orth">    0.09    0.09</time>
   <time name="total">    3.68    3.70</time>
   <energy>
    <i name="e_fr_energy">    -92.48948005 </i>
    <i name="e_wo_entrp">    -92.48948005 </i>
    <i name="e_0_energy">    -92.48948005 </i>
   </energy>
  </scstep>
  <scstep>
   <time name="diag">    1.23    1.23</time>
   <time name="diis">    1.98    1.99</time>
   <time name="orth">    0.09    0.09</time>
   <time name="total">    3.66    3.68</time>
   <energy>
    <i name="e_fr_energy">    -91.92828103 </i>
    <i name="e_wo_entrp">    -91.92828103 </i>
    <i name="e_0_energy">    -91.92828103 </i>
   </energy>
  </scstep>
  <scstep>
   <time name="diag">    1.23    1.23</time>
   <time name="diis">    2.06    2.06</time>
   <time name="orth">    0.09    0.09</time>
   <time name="total">    3.74    3.75</time>
   <energy>
    <i name="e_fr_energy">    -91.93828248 </i>
    <i name="e_wo_entrp">    -91.93828248 </i>
    <i name="e_0_energy">    -91.93828248 </i>
   </energy>
  </scstep>
  <scstep>
   <time name="diag">    1.23    1.23</time>
   <time name="diis">    2.03    2.03</time>
   <time name="orth">    0.09    0.09</time>
   <time name="total">    3.72    3.72</time>
   <energy>
    <i name="e_fr_energy">    -91.94168325 </i>
    <i name="e_wo_entrp">    -91.94168325 </i>
    <i name="e_0_energy">    -91.94168325 </i>
   </energy>
  </scstep>
  <scstep>
   <time name="diag">    1.23    1.23</time>
   <time name="diis">    2.04    2.04</time>
   <time name="orth">    0.09    0.09</time>
   <time name="total">    3.72    3.73</time>
   <energy>
    <i name="e_fr_energy">    -91.94223666 </i>
    <i name="e_wo_entrp">    -91.94223666 </i>
    <i name="e_0_energy">    -91.94223666 </i>
   </energy>
  </scstep>
  <scstep>
   <time name="diag">    1.23    1.23</time>
   <time name="diis">    1.99    1.99</time>
   <time name="orth">    0.09    0.09</time>
   <time name="total">    3.68    3.68</time>
   <energy>
    <i name="e_fr_energy">    -91.94136264 </i>
    <i name="e_wo_entrp">    -91.94136264 </i>
    <i name="e_0_energy">    -91.94136264 </i>
   </energy>
  </scstep>
  <scstep>
   <time name="diag">    1.25    1.25</time>
   <time name="diis">    1.99    1.99</time>
   <time name="orth">    0.10    0.10</time>
   <time name="total">    3.70    3.72</time>
   <energy>
    <i name="e_fr_energy">    -91.94232674 </i>
    <i name="e_wo_entrp">    -91.94232674 </i>
    <i name="e_0_energy">    -91.94232674 </i>
   </energy>
  </scstep>
  <scstep>
   <time name="diag">    1.26    1.27</time>
   <time name="diis">    1.99    1.99</time>
   <time name="orth">    0.09    0.09</time>
   <time name="total">    3.72    3.72</time>
   <energy>
    <i name="e_fr_energy">    -91.94240009 </i>
    <i name="e_wo_entrp">    -91.94240009 </i>
    <i name="e_0_energy">    -91.94240009 </i>
   </energy>
  </scstep>
  <scstep>
   <time name="diag">    1.23    1.23</time>
   <time name="diis">    2.04    2.04</time>
   <time name="orth">    0.09    0.09</time>
   <time name="total">    3.72    3.73</time>
   <energy>
    <i name="e_fr_energy">    -91.94240376 </i>
    <i name="e_wo_entrp">    -91.94240376 </i>
    <i name="e_0_energy">    -91.94240376 </i>
   </energy>
  </scstep>
  <scstep>
   <time name="diag">    1.23    1.23</time>
   <time name="diis">    1.99    1.99</time>
   <time name="orth">    0.10    0.10</time>
   <time name="total">    3.68    3.68</time>
   <energy>
    <i name="e_fr_energy">    -91.94240216 </i>
    <i name="e_wo_entrp">    -91.94240216 </i>
    <i name="e_0_energy">    -91.94240216 </i>
   </energy>
  </scstep>
  <scstep>
   <time name="diag">    1.23    1.23</time>
   <time name="diis">    2.15    2.16</time>
   <time name="orth">    0.09    0.09</time>
   <time name="total">    3.83    3.85</time>
   <energy>
    <i name="e_fr_energy">    -91.94240347 </i>
    <i name="e_wo_entrp">    -91.94240347 </i>
    <i name="e_0_energy">    -91.94240347 </i>
   </energy>
  </scstep>
  <scstep>
   <time name="diag">    1.23    1.23</time>
   <time name="diis">    1.98    1.98</time>
   <time name="orth">    0.09    0.09</time>
   <time name="total">    3.68    3.68</time>
   <energy>
    <i name="e_fr_energy">    -91.94240333 </i>
    <i name="e_wo_entrp">    -91.94240333 </i>
    <i name="e_0_energy">    -91.94240333 </i>
   </energy>
  </scstep>
  <scstep>
   <time name="diag">    1.24    1.24</time>
   <time name="diis">    1.99    2.00</time>
   <time name="orth">    0.09    0.09</time>
   <time name="total">    3.69    3.70</time>
   <energy>
    <i name="e_fr_energy">    -91.94240356 </i>
    <i name="e_wo_entrp">    -91.94240356 </i>
    <i name="e_0_energy">    -91.94240356 </i>
   </energy>
  </scstep>
  <scstep>
   <time name="diag">    1.23    1.23</time>
   <time name="diis">    1.63    1.63</time>
   <time name="orth">    0.09    0.09</time>
   <time name="total">    3.32    3.32</time>
   <energy>
    <i name="e_fr_energy">    -91.94240351 </i>
    <i name="e_wo_entrp">    -91.94240351 </i>
    <i name="e_0_energy">    -91.94240351 </i>
   </energy>
  </scstep>
  <scstep>
   <time name="diag">    1.23    1.23</time>
   <time name="diis">    1.43    1.43</time>
   <time name="orth">    0.09    0.09</time>
   <time name="total">    2.86    2.87</time>
   <energy>
    <i name="alphaZ">     26.82694619 </i>
    <i name="ewald">  -1826.53984258 </i>
    <i name="hartreedc">   -117.13369079 </i>
    <i name="XCdc">   -134.89719259 </i>
    <i name="pawpsdc">   6908.52003887 </i>
    <i name="pawaedc">  -6633.60701860 </i>
    <i name="eentropy">     -0.00000000 </i>
    <i name="bandstr">     43.67637759 </i>
    <i name="atom">   1641.21197842 </i>
    <i name="e_fr_energy">    -91.94240350 </i>
    <i name="e_wo_entrp">    -91.94240350 </i>
    <i name="e_0_energy">    -91.94240350 </i>
   </energy>
  </scstep>
  <structure>
   <crystal>
    <varray name="basis" >
     <v>       0.00000000       5.43581180       5.43581180 </v>
     <v>       5.43581180       0.00000000       5.43581180 </v>
     <v>       5.43581180       5.43581180       0.00000000 </v>
    </varray>
    <i name="volume">    321.23527682 </i>
    <varray name="rec_basis" >
     <v>      -0.09198258       0.09198258       0.09198258 </v>
     <v>       0.09198258      -0.09198258       0.09198258 </v>
     <v>       0.09198258       0.09198258      -0.09198258 </v>
    </varray>
   </crystal>
   <varray name="positions" >
    <v>       0.12559428       0.12544069       0.12529412 </v>
    <v>       0.62492188       0.12490423       0.12595270 </v>
    <v>       0.12474603       0.62495754       0.12554301 </v>
    <v>       0.62568377       0.62443573       0.12445031 </v>
    <v>       0.12484131       0.12586265       0.62587769 </v>
    <v>       0.62517214       0.12474251       0.62552643 </v>
    <v>       0.12520280       0.62540766       0.62528821 </v>
    <v>       0.62538577       0.62560848       0.62545670 </v>
    <v>       0.99985281       0.00089526       0.00045304 </v>
    <v>       0.49948385       0.99976920       0.00064355 </v>
    <v>       0.99953963       0.50038148       0.00034469 </v>
    <v>       0.50045390       0.50065763       0.99965620 </v>
    <v>       0.99992529       0.00041396       0.50016771 </v>
    <v>       0.50036506       0.99947814       0.50077689 </v>
    <v>       0.99957831       0.49947040       0.50076889 </v>
    <v>       0.49979694       0.49963581       0.50086376 </v>
   </varray>
  </structure>
  <varray name="forces" >
   <v>       0.01871061      -0.04764991      -0.05308921 </v>
   <v>      -0.01799177      -0.05646401       0.01250109 </v>
   <v>       0.02000858      -0.00687883       0.05131502 </v>
   <v>       0.14160844       0.03080646      -0.03933283 </v>
   <v>      -0.10591229       0.00777361      -0.06413568 </v>
   <v>       0.02053834      -0.00017071      -0.00532792 </v>
   <v>      -0.02343358      -0.03998521      -0.04633885 </v>
   <v>      -0.07940724      -0.04999480      -0.08786459 </v>
   <v>      -0.01711608       0.04671650      -0.04932898 </v>
   <v>      -0.02435659       0.07360198       0.06986227 </v>
   <v>      -0.03777483       0.03588383       0.05463254 </v>
   <v>      -0.00896496       0.00045215      -0.11835976 </v>
   <v>       0.03007203       0.05302952       0.03133383 </v>
   <v>       0.05821758      -0.05530212       0.02827896 </v>
   <v>       0.04559973       0.01367848       0.12864218 </v>
   <v>      -0.01979796      -0.00549695       0.08721193 </v>
  </varray>
  <varray name="stress" >
   <v>       0.00811422      -0.85605654      -0.60024131 </v>
   <v>      -0.85605663       0.02022168      -0.09736908 </v>
   <v>      -0.60024126      -0.09736906       0.00243201 </v>
  </varray>
  <energy>
   <i name="e_fr_energy">    -91.94240350 </i>
   <i name="e_wo_entrp">    -91.94240350 </i>
   <i name="e_0_energy">    -91.94240350 </i>
  </energy>
  <time name="totalsc">   83.49   83.75</time>
 </calculation>
 <calculation>
  <scstep>
   <time name="dav">    4.15    4.15</time>
   <time name="total">    4.49    4.49</time>
   <energy>
    <i name="alphaZ">     26.82694619 </i>
    <i name="ewald">  -1826.55354173 </i>
    <i name="hartreedc">   -117.12621415 </i>
    <i name="XCdc">   -134.89722259 </i>
    <i name="pawpsdc">   6908.38526931 </i>
    <i name="pawaedc">  -6633.47225822 </i>
    <i name="eentropy">     -0.00000000 </i>
    <i name="bandstr">     43.67993772 </i>
    <i name="atom">   1641.21197842 </i>
    <i name="e_fr_energy">    -91.94510503 </i>
    <i name="e_wo_entrp">    -91.94510503 </i>
    <i name="e_0_energy">    -91.94510503 </i>
   </energy>
  </scstep>
  <scstep>
   <time name="diag">    1.23    1.23</time>
   <time name="diis">    1.99    1.99</time>
   <time name="orth">    0.09    0.09</time>
   <time name="total">    3.67    3.68</time>
   <energy>
    <i name="e_fr_energy">    -91.94563736 </i>
    <i name="e_wo_entrp">    -91.94563736 </i>
    <i name="e_0_energy">    -91.94563736 </i>
   </energy>
  </scstep>
  <scstep>
   <time name="diag">    1.23    1.23</time>
   <time name="diis">    1.99    1.99</time>
   <time name="orth">    0.09    0.09</time>
   <time name="total">    3.67    3.68</time>
   <energy>
    <i name="e_fr_energy">    -91.94569039 </i>
    <i name="e_wo_entrp">    -91.94569039 </i>
    <i name="e_0_energy">    -91.94569039 </i>
   </energy>
  </scstep>
  <scstep>
   <time name="diag">    1.23    1.23</time>
   <time name="diis">    2.11    2.11</time>
   <time name="orth">    0.09    0.09</time>
   <time name="total">    3.79    3.81</time>
   <energy>
    <i name="e_fr_energy">    -91.94569214 </i>
    <i name="e_wo_entrp">    -91.94569214 </i>
    <i name="e_0_energy">    -91.94569214 </i>
   </energy>
  </scstep>
  <scstep>
   <time name="diag">    1.23    1.23</time>
   <time name="diis">    2.18    2.18</time>
   <time name="orth">    0.09    0.09</time>
   <time name="total">    3.86    3.88</time>
   <energy>
    <i name="e_fr_energy">    -91.94569427 </i>
    <i name="e_wo_entrp">    -91.94569427 </i>
    <i name="e_0_energy">    -91.94569427 </i>
   </energy>
  </scstep>
  <scstep>
   <time name="diag">    1.24    1.24</time>
   <time name="diis">    2.20    2.20</time>
   <time name="orth">    0.09    0.09</time>
   <time name="total">    3.89    3.91</time>
   <energy>
    <i name="e_fr_energy">    -91.94569483 </i>
    <i name="e_wo_entrp">    -91.94569483 </i>
    <i name="e_0_energy">    -91.94569483 </i>
   </energy>
  </scstep>
  <scstep>
   <time name="diag">    1.24    1.24</time>
   <time name="diis">    2.10    2.10</time>
   <time name="orth">    0.09    0.09</time>
   <time name="total">    3.80    3.81</time>
   <energy>
    <i name="e_fr_energy">    -91.94569493 </i>
    <i name="e_wo_entrp">    -91.94569493 </i>
    <i name="e_0_energy">    -91.94569493 </i>
   </energy>
  </scstep>
  <scstep>
   <time name="diag">    1.23    1.23</time>
   <time name="diis">    1.93    1.93</time>
   <time name="orth">    0.09    0.09</time>
   <time name="total">    3.60    3.62</time>
   <energy>
    <i name="e_fr_energy">    -91.94569495 </i>
    <i name="e_wo_entrp">    -91.94569495 </i>
    <i name="e_0_energy">    -91.94569495 </i>
   </energy>
  </scstep>
  <scstep>
   <time name="diag">    1.23    1.23</time>
   <time name="diis">    1.74    1.74</time>
   <time name="orth">    0.09    0.09</time>
   <time name="total">    3.17    3.19</time>
   <energy>
    <i name="alphaZ">     26.82694619 </i>
    <i name="ewald">  -1826.55354173 </i>
    <i name="hartreedc">   -117.12706745 </i>
    <i name="XCdc">   -134.89725529 </i>
    <i name="pawpsdc">   6907.98828433 </i>
    <i name="pawaedc">  -6633.07513581 </i>
    <i name="eentropy">     -0.00000000 </i>
    <i name="bandstr">     43.68009639 </i>
    <i name="atom">   1641.21197842 </i>
    <i name="e_fr_energy">    -91.94569495 </i>
    <i name="e_wo_entrp">    -91.94569495 </i>
    <i name="e_0_energy">    -91.94569495 </i>
   </energy>
  </scstep>
  <structure>
   <crystal>
    <varray name="basis" >
     <v>       0.00000000       5.43581180       5.43581180 </v>
     <v>       5.43581180       0.00000000       5.43581180 </v>
     <v>       5.43581180       5.43581180       0.00000000 </v>
    </varray>
    <i name="volume">    321.23527682 </i>
    <varray name="rec_basis" >
     <v>      -0.09198258       0.09198258       0.09198258 </v>
     <v>       0.09198258      -0.09198258       0.09198258 </v>
     <v>       0.09198258       0.09198258      -0.09198258 </v>
    </varray>
   </crystal>
   <varray name="positions" >
    <v>       0.12506423       0.12549958       0.12540129 </v>
    <v>       0.62480664       0.12513042       0.12556683 </v>
    <v>       0.12485443       0.62530456       0.12537356 </v>
    <v>       0.62501755       0.62475287       0.12538994 </v>
    <v>       0.12506119       0.12507357       0.62572680 </v>
    <v>       0.62505660       0.12481077       0.62564045 </v>
    <v>       0.12492373       0.62527548       0.62521242 </v>
    <v>       0.62512639       0.62508806       0.62527237 </v>
    <v>       0.99991717       0.00039310       0.00080329 </v>
    <v>       0.50022855       0.99964452       0.00055207 </v>
    <v>       0.00010892       0.50029705       0.00009387 </v>
    <v>       0.49997047       0.50009062       0.00014364 </v>
    <v>       0.00016621       0.00045113       0.50039743 </v>
    <v>       0.49998680       0.00010737       0.50066434 </v>
    <v>       0.00000751       0.50018289       0.50046109 </v>
    <v>       0.50024740       0.49995935       0.50036451 </v>
   </varray>
  </structure>
  <varray name="forces" >
   <v>      -0.01019686       0.01572108      -0.00041391 </v>
   <v>      -0.00653486       0.00707287       0.00075920 </v>
   <v>       0.00102140       0.00369476       0.00515966 </v>
   <v>      -0.00247495       0.00748759       0.00503488 </v>
   <v>       0.01363790      -0.00014473       0.00319075 </v>
   <v>       0.00814151       0.00366841       0.02300871 </v>
   <v>      -0.00041789       0.01192224       0.02814498 </v>
   <v>       0.00319895      -0.00442881       0.00143987 </v>
   <v>      -0.01084659      -0.01038251      -0.01123793 </v>
   <v>       0.01650359      -0.00589715       0.00081802 </v>
   <v>       0.01492803      -0.00369798      -0.00075564 </v>
   <v>       0.01046302       0.00121704      -0.01012638 </v>
   <v>      -0.00870363      -0.00293043      -0.01961000 </v>
   <v>      -0.01457185      -0.00994611      -0.00176587 </v>
   <v>      -0.01762998      -0.00299255      -0.00249789 </v>
   <v>       0.00348220      -0.01036372      -0.02114845 </v>
  </varray>
  <varray name="stress" >
   <v>      -0.02247833       0.24428863       0.16516911 </v>
   <v>       0.24428865      -0.02168899       0.02345975 </v>
   <v>       0.16516905       0.02345976      -0.02192696 </v>
  </varray>
  <energy>
   <i name="e_fr_energy">    -91.94569495 </i>
   <i name="e_wo_entrp">    -91.94569495 </i>
   <i name="e_0_energy">    -91.94569495 </i>
  </energy>
  <time name="totalsc">   38.19   38.35</time>
 </calculation>
 <calculation>
  <scstep>
   <time name="dav">    4.32    4.33</time>
   <time name="total">    4.66    4.67</time>
   <energy>
    <i name="alphaZ">     26.82694619 </i>
    <i name="ewald">  -1826.55348430 </i>
    <i name="hartreedc">   -117.12714441 </i>
    <i name="XCdc">   -134.89725459 </i>
    <i name="pawpsdc">   6907.98748099 </i>
    <i name="pawaedc">  -6633.07433233 </i>
    <i name="eentropy">     -0.00000000 </i>
    <i name="bandstr">     43.68010365 </i>
    <i name="atom">   1641.21197842 </i>
    <i name="e_fr_energy">    -91.94570639 </i>
    <i name="e_wo_entrp">    -91.94570639 </i>
    <i name="e_0_energy">    -91.94570639 </i>
   </energy>
  </scstep>
  <scstep>
   <time name="diag">    1.23    1.23</time>
   <time name="diis">    1.99    1.99</time>
   <time name="orth">    0.09    0.09</time>
   <time name="total">    3.66    3.68</time>
   <energy>
    <i name="e_fr_energy">    -91.94570826 </i>
    <i name="e_wo_entrp">    -91.94570826 </i>
    <i name="e_0_energy">    -91.94570826 </i>
   </energy>
  </scstep>
  <scstep>
   <time name="diag">    1.23    1.23</time>
   <time name="diis">    1.99    1.99</time>
   <time name="orth">    0.09    0.09</time>
   <time name="total">    3.66    3.68</time>
   <energy>
    <i name="e_fr_energy">    -91.94570843 </i>
    <i name="e_wo_entrp">    -91.94570843 </i>
    <i name="e_0_energy">    -91.94570843 </i>
   </energy>
  </scstep>
  <scstep>
   <time name="diag">    1.23    1.23</time>
   <time name="diis">    2.08    2.09</time>
   <time name="orth">    0.09    0.09</time>
   <time name="total">    3.76    3.78</time>
   <energy>
    <i name="e_fr_energy">    -91.94570843 </i>
    <i name="e_wo_entrp">    -91.94570843 </i>
    <i name="e_0_energy">    -91.94570843 </i>
   </energy>
  </scstep>
  <scstep>
   <time name="diag">    1.23    1.23</time>
   <time name="diis">    2.11    2.11</time>
   <time name="orth">    0.09    0.09</time>
   <time name="total">    3.55    3.56</time>
   <energy>
    <i name="alphaZ">     26.82694619 </i>
    <i name="ewald">  -1826.55348430 </i>
    <i name="hartreedc">   -117.12714891 </i>
    <i name="XCdc">   -134.89725525 </i>
    <i name="pawpsdc">   6907.98226470 </i>
    <i name="pawaedc">  -6633.06911531 </i>
    <i name="eentropy">     -0.00000000 </i>
    <i name="bandstr">     43.68010603 </i>
    <i name="atom">   1641.21197842 </i>
    <i name="e_fr_energy">    -91.94570844 </i>
    <i name="e_wo_entrp">    -91.94570844 </i>
    <i name="e_0_energy">    -91.94570844 </i>
   </energy>
  </scstep>
  <structure>
   <crystal>
    <varray name="basis" >
     <v>       0.00000000       5.43581180       5.43581180 </v>
     <v>       5.43581180       0.00000000       5.43581180 </v>
     <v>       5.43581180       5.43581180       0.00000000 </v>
    </varray>
    <i name="volume">    321.23527682 </i>
    <varray name="rec_basis" >
     <v>      -0.09198258       0.09198258       0.09198258 </v>
     <v>       0.09198258      -0.09198258       0.09198258 </v>
     <v>       0.09198258       0.09198258      -0.09198258 </v>
    </varray>
   </crystal>
   <varray name="positions" >
    <v>       0.12509616       0.12549603       0.12539483 </v>
    <v>       0.62481358       0.12511680       0.12559008 </v>
    <v>       0.12484790       0.62528366       0.12538377 </v>
    <v>       0.62505768       0.62473377       0.12533334 </v>
    <v>       0.12504795       0.12512110       0.62573589 </v>
    <v>       0.62506356       0.12480666       0.62563359 </v>
    <v>       0.12494054       0.62528344       0.62521698 </v>
    <v>       0.62514202       0.62511941       0.62528348 </v>
    <v>       0.99991329       0.00042335       0.00078219 </v>
    <v>       0.50018370       0.99965203       0.00055758 </v>
    <v>       0.00007463       0.50030214       0.00010897 </v>
    <v>       0.49999958       0.50012477       0.00011428 </v>
    <v>       0.00015169       0.00044889       0.50038359 </v>
    <v>       0.50000958       0.00006947       0.50067112 </v>
    <v>      -0.00001834       0.50013998       0.50047963 </v>
    <v>       0.50022027       0.49993986       0.50039459 </v>
   </varray>
  </structure>
  <varray name="forces" >
   <v>      -0.00849605       0.01191567      -0.00358473 </v>
   <v>      -0.00723797       0.00320340       0.00147143 </v>
   <v>       0.00218300       0.00303616       0.00797295 </v>
   <v>       0.00624490       0.00894890       0.00230685 </v>
   <v>       0.00641668       0.00024547      -0.00088860 </v>
   <v>       0.00889531       0.00343518       0.02130201 </v>
   <v>      -0.00186961       0.00875551       0.02362109 </v>
   <v>      -0.00182122      -0.00724626      -0.00399363 </v>
   <v>      -0.01124615      -0.00691197      -0.01356298 </v>
   <v>       0.01408601      -0.00110199       0.00498523 </v>
   <v>       0.01176966      -0.00133373       0.00258335 </v>
   <v>       0.00930115       0.00120716      -0.01666520 </v>
   <v>      -0.00631944       0.00049944      -0.01649977 </v>
   <v>      -0.01018351      -0.01266769       0.00003924 </v>
   <v>      -0.01380127      -0.00188541       0.00545211 </v>
   <v>       0.00207851      -0.01009985      -0.01453936 </v>
  </varray>
  <varray name="stress" >
   <v>      -0.02260588       0.17773178       0.11848966 </v>
   <v>       0.17773179      -0.02173226       0.01593174 </v>
   <v>       0.11848967       0.01593169      -0.02207997 </v>
  </varray>
  <energy>
   <i name="e_fr_energy">    -91.94570844 </i>
   <i name="e_wo_entrp">    -91.94570844 </i>
   <i name="e_0_energy">    -91.94570844 </i>
  </energy>
  <time name="totalsc">   23.56   23.70</time>
 </calculation>
 <calculation>
  <scstep>
   <time name="dav">    4.10    4.10</time>
   <time name="total">    4.44    4.44</time>
   <energy>
    <i name="alphaZ">     26.82694619 </i>
    <i name="ewald">  -1826.55387879 </i>
    <i name="hartreedc">   -117.12688102 </i>
    <i name="XCdc">   -134.89725422 </i>
    <i name="pawpsdc">   6907.98399074 </i>
    <i name="pawaedc">  -6633.07084133 </i>
    <i name="eentropy">     -0.00000000 </i>
    <i name="bandstr">     43.68014168 </i>
    <i name="atom">   1641.21197842 </i>
    <i name="e_fr_energy">    -91.94579833 </i>
    <i name="e_wo_entrp">    -91.94579833 </i>
    <i name="e_0_energy">    -91.94579833 </i>
   </energy>
  </scstep>
  <scstep>
   <time name="diag">    1.23    1.23</time>
   <time name="diis">    1.98    1.98</time>
   <time name="orth">    0.09    0.09</time>
   <time name="total">    3.66    3.68</time>
   <energy>
    <i name="e_fr_energy">    -91.94581037 </i>
    <i name="e_wo_entrp">    -91.94581037 </i>
    <i name="e_0_energy">    -91.94581037 </i>
   </energy>
  </scstep>
  <scstep>
   <time name="diag">    1.26    1.26</time>
   <time name="diis">    1.99    1.99</time>
   <time name="orth">    0.09    0.09</time>
   <time name="total">    3.70    3.71</time>
   <energy>
    <i name="e_fr_energy">    -91.94581191 </i>
    <i name="e_wo_entrp">    -91.94581191 </i>
    <i name="e_0_energy">    -91.94581191 </i>
   </energy>
  </scstep>
  <scstep>
   <time name="diag">    1.23    1.23</time>
   <time name="diis">    2.11    2.11</time>
   <time name="orth">    0.09    0.09</time>
   <time name="total">    3.79    3.80</time>
   <energy>
    <i name="e_fr_energy">    -91.94581208 </i>
    <i name="e_wo_entrp">    -91.94581208 </i>
    <i name="e_0_energy">    -91.94581208 </i>
   </energy>
  </scstep>
  <scstep>
   <time name="diag">    1.23    1.23</time>
   <time name="diis">    2.14    2.14</time>
   <time name="orth">    0.09    0.09</time>
   <time name="total">    3.82    3.83</time>
   <energy>
    <i name="e_fr_energy">    -91.94581214 </i>
    <i name="e_wo_entrp">    -91.94581214 </i>
    <i name="e_0_energy">    -91.94581214 </i>
   </energy>
  </scstep>
  <scstep>
   <time name="diag">    1.23    1.23</time>
   <time name="diis">    2.21    2.21</time>
   <time name="orth">    0.09    0.09</time>
   <time name="total">    3.89    3.90</time>
   <energy>
    <i name="e_fr_energy">    -91.94581215 </i>
    <i name="e_wo_entrp">    -91.94581215 </i>
    <i name="e_0_energy">    -91.94581215 </i>
   </energy>
  </scstep>
  <scstep>
   <time name="diag">    1.23    1.23</time>
   <time name="diis">    1.67    1.67</time>
   <time name="orth">    0.09    0.09</time>
   <time name="total">    3.11    3.13</time>
   <energy>
    <i name="alphaZ">     26.82694619 </i>
    <i name="ewald">  -1826.55387879 </i>
    <i name="hartreedc">   -117.12690843 </i>
    <i name="XCdc">   -134.89725291 </i>
    <i name="pawpsdc">   6907.98448396 </i>
    <i name="pawaedc">  -6633.07133262 </i>
    <i name="eentropy">     -0.00000000 </i>
    <i name="bandstr">     43.68015203 </i>
    <i name="atom">   1641.21197842 </i>
    <i name="e_fr_energy">    -91.94581215 </i>
    <i name="e_wo_entrp">    -91.94581215 </i>
    <i name="e_0_energy">    -91.94581215 </i>
   </energy>
  </scstep>
  <structure>
   <crystal>
    <varray name="basis" >
     <v>       0.00000000       5.43581180       5.43581180 </v>
     <v>       5.43581180       0.00000000       5.43581180 </v>
     <v>       5.43581180       5.43581180       0.00000000 </v>
    </varray>
    <i name="volume">    321.23527682 </i>
    <varray name="rec_basis" >
     <v>      -0.09198258       0.09198258       0.09198258 </v>
     <v>       0.09198258      -0.09198258       0.09198258 </v>
     <v>       0.09198258       0.09198258      -0.09198258 </v>
    </varray>
   </crystal>
   <varray name="positions" >
    <v>       0.12515576       0.12539241       0.12542840 </v>
    <v>       0.62486272       0.12508352       0.12555562 </v>
    <v>       0.12488949       0.62532415       0.12536716 </v>
    <v>       0.62506184       0.62474051       0.12541496 </v>
    <v>       0.12502288       0.12512316       0.62576495 </v>
    <v>       0.62512993       0.12492581       0.62559730 </v>
    <v>       0.12508321       0.62533688       0.62514159 </v>
    <v>       0.62509379       0.62511177       0.62525631 </v>
    <v>       0.99987455       0.00033146       0.00077141 </v>
    <v>       0.50015888       0.99973714       0.00059020 </v>
    <v>       0.00004373       0.50036865       0.00013669 </v>
    <v>       0.49987812       0.50007204       0.00024644 </v>
    <v>       0.00011569       0.00034766       0.50043655 </v>
    <v>       0.49998875       0.00009735       0.50056776 </v>
    <v>       0.00006927       0.50013069       0.50037872 </v>
    <v>       0.50011518       0.49993816       0.50040981 </v>
   </varray>
  </structure>
  <varray name="forces" >
   <v>      -0.00231021       0.00023087      -0.00424135 </v>
   <v>      -0.00153093       0.00137663       0.00050680 </v>
   <v>      -0.00088061      -0.00013626      -0.00149289 </v>
   <v>       0.00233025      -0.00175341       0.00187682 </v>
   <v>      -0.00035180      -0.00386220      -0.00088812 </v>
   <v>       0.00093725      -0.00234626       0.00116223 </v>
   <v>       0.00045312       0.00309452       0.00027693 </v>
   <v>       0.00102969       0.00017791      -0.00229926 </v>
   <v>      -0.00392983      -0.00163967      -0.00046999 </v>
   <v>       0.00313391      -0.00159569       0.00250977 </v>
   <v>       0.00162501       0.00314421       0.00024527 </v>
   <v>       0.00279287       0.00382355       0.00183213 </v>
   <v>      -0.00205670       0.00092734      -0.00149361 </v>
   <v>      -0.00154919      -0.00002300       0.00218888 </v>
   <v>      -0.00093859      -0.00000433       0.00114075 </v>
   <v>       0.00124577      -0.00141421      -0.00085436 </v>
  </varray>
  <varray name="stress" >
   <v>      -0.02289258      -0.01866438      -0.01202613 </v>
   <v>      -0.01866446      -0.02275157      -0.00118748 </v>
   <v>      -0.01202609      -0.00118748      -0.02267576 </v>
  </varray>
  <energy>
   <i name="e_fr_energy">    -91.94581215 </i>
   <i name="e_wo_entrp">    -91.94581215 </i>
   <i name="e_0_energy">    -91.94581215 </i>
  </energy>
  <time name="totalsc">   30.65   30.92</time>
 </calculation>
 <calculation>
  <scstep>
   <time name="dav">    4.52    4.52</time>
   <time name="total">    4.86    4.86</time>
   <energy>
    <i name="alphaZ">     26.82694619 </i>
    <i name="ewald">  -1826.55387385 </i>
    <i name="hartreedc">   -117.12691049 </i>
    <i name="XCdc">   -134.89725269 </i>
    <i name="pawpsdc">   6907.98187147 </i>
    <i name="pawaedc">  -6633.06871997 </i>
    <i name="eentropy">     -0.00000000 </i>
    <i name="bandstr">     43.68014810 </i>
    <i name="atom">   1641.21197842 </i>
    <i name="e_fr_energy">    -91.94581282 </i>
    <i name="e_wo_entrp">    -91.94581282 </i>
    <i name="e_0_energy">    -91.94581282 </i>
   </energy>
  </scstep>
  <scstep>
   <time name="diag">    1.23    1.23</time>
   <time name="diis">    1.99    1.99</time>
   <time name="orth">    0.09    0.09</time>
   <time name="total">    3.66    3.68</time>
   <energy>
    <i name="e_fr_energy">    -91.94581293 </i>
    <i name="e_wo_entrp">    -91.94581293 </i>
    <i name="e_0_energy">    -91.94581293 </i>
   </energy>
  </scstep>
  <scstep>
   <time name="diag">    1.23    1.23</time>
   <time name="diis">    1.99    1.99</time>
   <time name="orth">    0.09    0.09</time>
   <time name="total">    3.66    3.68</time>
   <energy>
    <i name="e_fr_energy">    -91.94581294 </i>
    <i name="e_wo_entrp">    -91.94581294 </i>
    <i name="e_0_energy">    -91.94581294 </i>
   </energy>
  </scstep>
  <scstep>
   <time name="diag">    1.26    1.26</time>
   <time name="diis">    1.77    1.77</time>
   <time name="orth">    0.09    0.09</time>
   <time name="total">    3.47    3.49</time>
   <energy>
    <i name="e_fr_energy">    -91.94581294 </i>
    <i name="e_wo_entrp">    -91.94581294 </i>
    <i name="e_0_energy">    -91.94581294 </i>
   </energy>
  </scstep>
  <scstep>
   <time name="diag">    1.23    1.23</time>
   <time name="diis">    1.36    1.36</time>
   <time name="orth">    0.09    0.09</time>
   <time name="total">    2.80    2.82</time>
   <energy>
    <i name="alphaZ">     26.82694619 </i>
    <i name="ewald">  -1826.55387385 </i>
    <i name="hartreedc">   -117.12691320 </i>
    <i name="XCdc">   -134.89725218 </i>
    <i name="pawpsdc">   6907.98381855 </i>
    <i name="pawaedc">  -6633.07066718 </i>
    <i name="eentropy">     -0.00000000 </i>
    <i name="bandstr">     43.68015033 </i>
    <i name="atom">   1641.21197842 </i>
    <i name="e_fr_energy">    -91.94581295 </i>
    <i name="e_wo_entrp">    -91.94581295 </i>
    <i name="e_0_energy">    -91.94581295 </i>
   </energy>
  </scstep>
  <structure>
   <crystal>
    <varray name="basis" >
     <v>       0.00000000       5.43581180       5.43581180 </v>
     <v>       5.43581180       0.00000000       5.43581180 </v>
     <v>       5.43581180       5.43581180       0.00000000 </v>
    </varray>
    <i name="volume">    321.23527682 </i>
    <varray name="rec_basis" >
     <v>      -0.09198258       0.09198258       0.09198258 </v>
     <v>       0.09198258      -0.09198258       0.09198258 </v>
     <v>       0.09198258       0.09198258      -0.09198258 </v>
    </varray>
   </crystal>
   <varray name="positions" >
    <v>       0.12516135       0.12538269       0.12543155 </v>
    <v>       0.62486733       0.12508040       0.12555239 </v>
    <v>       0.12489339       0.62532795       0.12536561 </v>
    <v>       0.62506223       0.62474114       0.12542262 </v>
    <v>       0.12502052       0.12512335       0.62576768 </v>
    <v>       0.62513615       0.12493698       0.62559390 </v>
    <v>       0.12509660       0.62534190       0.62513451 </v>
    <v>       0.62508927       0.62511106       0.62525376 </v>
    <v>       0.99987092       0.00032285       0.00077040 </v>
    <v>       0.50015655       0.99974512       0.00059326 </v>
    <v>       0.00004083       0.50037489       0.00013929 </v>
    <v>       0.49986672       0.50006709       0.00025884 </v>
    <v>       0.00011232       0.00033816       0.50044152 </v>
    <v>       0.49998680       0.00009997       0.50055807 </v>
    <v>       0.00007749       0.50012981       0.50036926 </v>
    <v>       0.50010532       0.49993800       0.50041124 </v>
   </varray>
  </structure>
  <varray name="forces" >
   <v>      -0.00173758      -0.00086033      -0.00431011 </v>
   <v>      -0.00100353       0.00120567       0.00042206 </v>
   <v>      -0.00116363      -0.00043456      -0.00237249 </v>
   <v>       0.00197003      -0.00274952       0.00183509 </v>
   <v>      -0.00097981      -0.00424532      -0.00089413 </v>
   <v>       0.00020099      -0.00288332      -0.00070951 </v>
   <v>       0.00067080       0.00256631      -0.00190083 </v>
   <v>       0.00129245       0.00086785      -0.00214749 </v>
   <v>      -0.00325078      -0.00114934       0.00074679 </v>
   <v>       0.00211355      -0.00164082       0.00228581 </v>
   <v>       0.00068057       0.00356111       0.00003220 </v>
   <v>       0.00218840       0.00407392       0.00355058 </v>
   <v>      -0.00166004       0.00096792      -0.00009979 </v>
   <v>      -0.00074454       0.00115111       0.00239418 </v>
   <v>       0.00025903       0.00017500       0.00074725 </v>
   <v>       0.00116409      -0.00060569       0.00042038 </v>
  </varray>
  <varray name="stress" >
   <v>      -0.02283453      -0.03701634      -0.02421558 </v>
   <v>      -0.03701640      -0.02275107      -0.00277205 </v>
   <v>      -0.02421555      -0.00277205      -0.02269156 </v>
  </varray>
  <energy>
   <i name="e_fr_energy">    -91.94581295 </i>
   <i name="e_wo_entrp">    -91.94581295 </i>
   <i name="e_0_energy">    -91.94581295 </i>
  </energy>
  <time name="totalsc">   22.72   22.85</time>
 </calculation>
 <calculation>
  <scstep>
   <time name="dav">    3.98    3.98</time>
   <time name="total">    4.32    4.32</time>
   <energy>
    <i name="alphaZ">     26.82694619 </i>
    <i name="ewald">  -1826.55380591 </i>
    <i name="hartreedc">   -117.12695026 </i>
    <i name="XCdc">   -134.89724943 </i>
    <i name="pawpsdc">   6907.98256093 </i>
    <i name="pawaedc">  -6633.06940955 </i>
    <i name="eentropy">     -0.00000000 </i>
    <i name="bandstr">     43.68011010 </i>
    <i name="atom">   1641.21197842 </i>
    <i name="e_fr_energy">    -91.94581952 </i>
    <i name="e_wo_entrp">    -91.94581952 </i>
    <i name="e_0_energy">    -91.94581952 </i>
   </energy>
  </scstep>
  <scstep>
   <time name="diag">    1.23    1.23</time>
   <time name="diis">    2.01    2.01</time>
   <time name="orth">    0.09    0.09</time>
   <time name="total">    3.69    3.70</time>
   <energy>
    <i name="e_fr_energy">    -91.94581979 </i>
    <i name="e_wo_entrp">    -91.94581979 </i>
    <i name="e_0_energy">    -91.94581979 </i>
   </energy>
  </scstep>
  <scstep>
   <time name="diag">    1.23    1.23</time>
   <time name="diis">    1.98    1.99</time>
   <time name="orth">    0.09    0.09</time>
   <time name="total">    3.66    3.68</time>
   <energy>
    <i name="e_fr_energy">    -91.94581982 </i>
    <i name="e_wo_entrp">    -91.94581982 </i>
    <i name="e_0_energy">    -91.94581982 </i>
   </energy>
  </scstep>
  <scstep>
   <time name="diag">    1.23    1.23</time>
   <time name="diis">    2.02    2.02</time>
   <time name="orth">    0.09    0.09</time>
   <time name="total">    3.70    3.71</time>
   <energy>
    <i name="e_fr_energy">    -91.94581983 </i>
    <i name="e_wo_entrp">    -91.94581983 </i>
    <i name="e_0_energy">    -91.94581983 </i>
   </energy>
  </scstep>
  <scstep>
   <time name="diag">    1.23    1.23</time>
   <time name="diis">    1.41    1.41</time>
   <time name="orth">    0.09    0.09</time>
   <time name="total">    2.85    2.86</time>
   <energy>
    <i name="alphaZ">     26.82694619 </i>
    <i name="ewald">  -1826.55380591 </i>
    <i name="hartreedc">   -117.12696611 </i>
    <i name="XCdc">   -134.89724734 </i>
    <i name="pawpsdc">   6907.98516075 </i>
    <i name="pawaedc">  -6633.07201077 </i>
    <i name="eentropy">     -0.00000000 </i>
    <i name="bandstr">     43.68012495 </i>
    <i name="atom">   1641.21197842 </i>
    <i name="e_fr_energy">    -91.94581983 </i>
    <i name="e_wo_entrp">    -91.94581983 </i>
    <i name="e_0_energy">    -91.94581983 </i>
   </energy>
  </scstep>
  <structure>
   <crystal>
    <varray name="basis" >
     <v>       0.00000000       5.43581180       5.43581180 </v>
     <v>       5.43581180       0.00000000       5.43581180 </v>
     <v>       5.43581180       5.43581180       0.00000000 </v>
    </varray>
    <i name="volume">    321.23527682 </i>
    <varray name="rec_basis" >
     <v>      -0.09198258       0.09198258       0.09198258 </v>
     <v>       0.09198258      -0.09198258       0.09198258 </v>
     <v>       0.09198258       0.09198258      -0.09198258 </v>
    </varray>
   </crystal>
   <varray name="positions" >
    <v>       0.12514869       0.12535486       0.12544071 </v>
    <v>       0.62488129       0.12507092       0.12554986 </v>
    <v>       0.12488792       0.62531592       0.12536832 </v>
    <v>       0.62504953       0.62477072       0.12541461 </v>
    <v>       0.12500082       0.12513404       0.62574965 </v>
    <v>       0.62512219       0.12495295       0.62558346 </v>
    <v>       0.12510299       0.62532734       0.62515407 </v>
    <v>       0.62507561       0.62510302       0.62527177 </v>
    <v>       0.99988190       0.00031266       0.00074692 </v>
    <v>       0.50014887       0.99977592       0.00058663 </v>
    <v>       0.00005245       0.50036516       0.00015934 </v>
    <v>       0.49988554       0.50007216       0.00027689 </v>
    <v>       0.00012199       0.00032143       0.50044126 </v>
    <v>       0.50000502       0.00010345       0.50054454 </v>
    <v>       0.00008439       0.50013311       0.50036332 </v>
    <v>       0.50009457       0.49994771       0.50041254 </v>
   </varray>
  </structure>
  <varray name="forces" >
   <v>      -0.00113034      -0.00101839      -0.00246877 </v>
   <v>      -0.00006261       0.00089140       0.00161510 </v>
   <v>      -0.00093753       0.00132207      -0.00006448 </v>
   <v>       0.00243621      -0.00058890       0.00325151 </v>
   <v>      -0.00204974      -0.00213533       0.00118158 </v>
   <v>      -0.00022728      -0.00127989       0.00015166 </v>
   <v>       0.00080964       0.00183463      -0.00250071 </v>
   <v>       0.00118853       0.00136477      -0.00050415 </v>
   <v>      -0.00322674      -0.00120019       0.00012838 </v>
   <v>       0.00133972      -0.00232308       0.00133483 </v>
   <v>      -0.00033936       0.00193777      -0.00246532 </v>
   <v>       0.00114409       0.00227616       0.00131263 </v>
   <v>      -0.00097765      -0.00030298      -0.00156747 </v>
   <v>      -0.00009028       0.00015870      -0.00032296 </v>
   <v>       0.00159374      -0.00038272      -0.00029709 </v>
   <v>       0.00052961      -0.00055402       0.00121526 </v>
  </varray>
  <varray name="stress" >
   <v>      -0.02269625       0.00258562       0.00135822 </v>
   <v>       0.00258563      -0.02257945       0.00009707 </v>
   <v>       0.00135820       0.00009713      -0.02260975 </v>
  </varray>
  <energy>
   <i name="e_fr_energy">    -91.94581983 </i>
   <i name="e_wo_entrp">    -91.94581983 </i>
   <i name="e_0_energy">    -91.94581983 </i>
  </energy>
  <time name="totalsc">   22.48   22.60</time>
 </calculation>
 <calculation>
  <scstep>
   <time name="dav">    4.02    4.02</time>
   <time name="total">    4.36    4.36</time>
   <energy>
    <i name="alphaZ">     26.82694619 </i>
    <i name="ewald">  -1826.55370753 </i>
    <i name="hartreedc">   -117.12701694 </i>
    <i name="XCdc">   -134.89724394 </i>
    <i name="pawpsdc">   6907.98460877 </i>
    <i name="pawaedc">  -6633.07145876 </i>
    <i name="eentropy">     -0.00000000 </i>
    <i name="bandstr">     43.68007106 </i>
    <i name="atom">   1641.21197842 </i>
    <i name="e_fr_energy">    -91.94582274 </i>
    <i name="e_wo_entrp">    -91.94582274 </i>
    <i name="e_0_energy">    -91.94582274 </i>
   </energy>
  </scstep>
  <scstep>
   <time name="diag">    1.24    1.24</time>
   <time name="diis">    1.99    1.99</time>
   <time name="orth">    0.09    0.09</time>
   <time name="total">    3.68    3.69</time>
   <energy>
    <i name="e_fr_energy">    -91.94582326 </i>
    <i name="e_wo_entrp">    -91.94582326 </i>
    <i name="e_0_energy">    -91.94582326 </i>
   </energy>
  </scstep>
  <scstep>
   <time name="diag">    1.23    1.23</time>
   <time name="diis">    1.99    1.99</time>
   <time name="orth">    0.09    0.09</time>
   <time name="total">    3.66    3.68</time>
   <energy>
    <i name="e_fr_energy">    -91.94582331 </i>
    <i name="e_wo_entrp">    -91.94582331 </i>
    <i name="e_0_energy">    -91.94582331 </i>
   </energy>
  </scstep>
  <scstep>
   <time name="diag">    1.23    1.23</time>
   <time name="diis">    2.46    2.46</time>
   <time name="orth">    0.10    0.10</time>
   <time name="total">    4.19    4.21</time>
   <energy>
    <i name="e_fr_energy">    -91.94582332 </i>
    <i name="e_wo_entrp">    -91.94582332 </i>
    <i name="e_0_energy">    -91.94582332 </i>
   </energy>
  </scstep>
  <scstep>
   <time name="diag">    1.23    1.23</time>
   <time name="diis">    1.70    1.70</time>
   <time name="orth">    0.11    0.11</time>
   <time name="total">    3.15    3.16</time>
   <energy>
    <i name="alphaZ">     26.82694619 </i>
    <i name="ewald">  -1826.55370753 </i>
    <i name="hartreedc">   -117.12703619 </i>
    <i name="XCdc">   -134.89724122 </i>
    <i name="pawpsdc">   6907.98976594 </i>
    <i name="pawaedc">  -6633.07661788 </i>
    <i name="eentropy">     -0.00000000 </i>
    <i name="bandstr">     43.68008895 </i>
    <i name="atom">   1641.21197842 </i>
    <i name="e_fr_energy">    -91.94582332 </i>
    <i name="e_wo_entrp">    -91.94582332 </i>
    <i name="e_0_energy">    -91.94582332 </i>
   </energy>
  </scstep>
  <structure>
   <crystal>
    <varray name="basis" >
     <v>       0.00000000       5.43581180       5.43581180 </v>
     <v>       5.43581180       0.00000000       5.43581180 </v>
     <v>       5.43581180       5.43581180       0.00000000 </v>
    </varray>
    <i name="volume">    321.23527682 </i>
    <varray name="rec_basis" >
     <v>      -0.09198258       0.09198258       0.09198258 </v>
     <v>       0.09198258      -0.09198258       0.09198258 </v>
     <v>       0.09198258       0.09198258      -0.09198258 </v>
    </varray>
   </crystal>
   <varray name="positions" >
    <v>       0.12513154       0.12531713       0.12545312 </v>
    <v>       0.62490022       0.12505807       0.12554643 </v>
    <v>       0.12488050       0.62529960       0.12537200 </v>
    <v>       0.62503232       0.62481082       0.12540375 </v>
    <v>       0.12497410       0.12514852       0.62572519 </v>
    <v>       0.62510326       0.12497459       0.62556930 </v>
    <v>       0.12511165       0.62530761       0.62518059 </v>
    <v>       0.62505710       0.62509212       0.62529620 </v>
    <v>       0.99989678       0.00029886       0.00071510 </v>
    <v>       0.50013847       0.99981769       0.00057764 </v>
    <v>       0.00006820       0.50035197       0.00018652 </v>
    <v>       0.49991105       0.50007903       0.00030137 </v>
    <v>       0.00013510       0.00029874       0.50044090 </v>
    <v>       0.50002973       0.00010816       0.50052621 </v>
    <v>       0.00009375       0.50013758       0.50035528 </v>
    <v>       0.50008000       0.49996087       0.50041431 </v>
   </varray>
  </structure>
  <varray name="forces" >
   <v>      -0.00031202      -0.00124068       0.00000725 </v>
   <v>       0.00120992       0.00046578       0.00322565 </v>
   <v>      -0.00063655       0.00369779       0.00304381 </v>
   <v>       0.00307453       0.00232145       0.00517537 </v>
   <v>      -0.00350556       0.00070060       0.00398433 </v>
   <v>      -0.00080878       0.00087529       0.00130326 </v>
   <v>       0.00100301       0.00084838      -0.00333232 </v>
   <v>       0.00105626       0.00204036       0.00171199 </v>
   <v>      -0.00320453      -0.00126725      -0.00069549 </v>
   <v>       0.00029795      -0.00325096       0.00005537 </v>
   <v>      -0.00172228      -0.00024301      -0.00584785 </v>
   <v>      -0.00026567      -0.00014252      -0.00169256 </v>
   <v>      -0.00006130      -0.00201878      -0.00354354 </v>
   <v>       0.00079284      -0.00117391      -0.00398986 </v>
   <v>       0.00340468      -0.00113370      -0.00170900 </v>
   <v>      -0.00032248      -0.00047884       0.00230359 </v>
  </varray>
  <varray name="stress" >
   <v>      -0.02246899       0.05576954       0.03568497 </v>
   <v>       0.05576946      -0.02233069       0.00397468 </v>
   <v>       0.03568488       0.00397468      -0.02247483 </v>
  </varray>
  <energy>
   <i name="e_fr_energy">    -91.94582332 </i>
   <i name="e_wo_entrp">    -91.94582332 </i>
   <i name="e_0_energy">    -91.94582332 </i>
  </energy>
  <time name="totalsc">   23.36   23.49</time>
 </calculation>
 <calculation>
  <scstep>
   <time name="dav">    4.05    4.05</time>
   <time name="total">    4.39    4.39</time>
   <energy>
    <i name="alphaZ">     26.82694619 </i>
    <i name="ewald">  -1826.55366058 </i>
    <i name="hartreedc">   -117.12706110 </i>
    <i name="XCdc">   -134.89723940 </i>
    <i name="pawpsdc">   6907.98903875 </i>
    <i name="pawaedc">  -6633.07589064 </i>
    <i name="eentropy">     -0.00000000 </i>
    <i name="bandstr">     43.68006056 </i>
    <i name="atom">   1641.21197842 </i>
    <i name="e_fr_energy">    -91.94582781 </i>
    <i name="e_wo_entrp">    -91.94582781 </i>
    <i name="e_0_energy">    -91.94582781 </i>
   </energy>
  </scstep>
  <scstep>
   <time name="diag">    1.23    1.23</time>
   <time name="diis">    1.98    1.99</time>
   <time name="orth">    0.09    0.09</time>
   <time name="total">    3.66    3.68</time>
   <energy>
    <i name="e_fr_energy">    -91.94582785 </i>
    <i name="e_wo_entrp">    -91.94582785 </i>
    <i name="e_0_energy">    -91.94582785 </i>
   </energy>
  </scstep>
  <scstep>
   <time name="diag">    1.23    1.23</time>
   <time name="diis">    1.99    1.99</time>
   <time name="orth">    0.09    0.09</time>
   <time name="total">    3.67    3.68</time>
   <energy>
    <i name="e_fr_energy">    -91.94582786 </i>
    <i name="e_wo_entrp">    -91.94582786 </i>
    <i name="e_0_energy">    -91.94582786 </i>
   </energy>
  </scstep>
  <scstep>
[...]
     <v>       5.43581180       5.43581180       0.00000000 </v>
    </varray>
    <i name="volume">    321.23527682 </i>
    <varray name="rec_basis" >
     <v>      -0.09198258       0.09198258       0.09198258 </v>
     <v>       0.09198258      -0.09198258       0.09198258 </v>
     <v>       0.09198258       0.09198258      -0.09198258 </v>
    </varray>
   </crystal>
   <varray name="positions" >
    <v>       0.12503389       0.12512838       0.12544094 </v>
    <v>       0.62503444       0.12512956       0.12544034 </v>
    <v>       0.12503441       0.62512796       0.12544208 </v>
    <v>       0.62503379       0.62512939       0.12544259 </v>
    <v>       0.12503397       0.12512759       0.62544099 </v>
    <v>       0.62503330       0.12512970       0.62544108 </v>
    <v>       0.12503332       0.62512829       0.62544235 </v>
    <v>       0.62503426       0.62512958       0.62544182 </v>
    <v>       0.00003446       0.00012796       0.00044093 </v>
    <v>       0.50003400       0.00012940       0.00044099 </v>
    <v>       0.00003394       0.50012840       0.00044223 </v>
    <v>       0.50003457       0.50012960       0.00044176 </v>
    <v>       0.00003345       0.00012838       0.50044087 </v>
    <v>       0.50003417       0.00012974       0.50044034 </v>
    <v>       0.00003439       0.50012765       0.50044206 </v>
    <v>       0.50003342       0.50012976       0.50044252 </v>
   </varray>
  </structure>
  <varray name="forces" >
   <v>       0.00000567       0.00001017       0.00001390 </v>
   <v>       0.00000664       0.00000696      -0.00000365 </v>
   <v>      -0.00000055       0.00000352       0.00001310 </v>
   <v>      -0.00001141       0.00000026       0.00001107 </v>
   <v>       0.00000858       0.00000958       0.00002653 </v>
   <v>      -0.00000483       0.00000977       0.00001342 </v>
   <v>      -0.00000291       0.00000096       0.00002232 </v>
   <v>      -0.00000574      -0.00000496       0.00000642 </v>
   <v>       0.00000491      -0.00000487      -0.00000549 </v>
   <v>       0.00000434      -0.00000025      -0.00001110 </v>
   <v>       0.00000249      -0.00000796      -0.00001099 </v>
   <v>      -0.00000683      -0.00001249      -0.00002111 </v>
   <v>       0.00000762       0.00000347      -0.00000973 </v>
   <v>      -0.00000219       0.00000187      -0.00002509 </v>
   <v>       0.00000409      -0.00001376      -0.00000856 </v>
   <v>      -0.00000988      -0.00000227      -0.00001104 </v>
  </varray>
  <varray name="stress" >
   <v>      -0.02172893       0.00038533       0.00013857 </v>
   <v>       0.00038535      -0.02172953      -0.00001165 </v>
   <v>       0.00013860      -0.00001158      -0.02173107 </v>
  </varray>
  <energy>
   <i name="e_fr_energy">    -91.94585672 </i>
   <i name="e_wo_entrp">    -91.94585672 </i>
   <i name="e_0_energy">    -91.94585672 </i>
  </energy>
  <time name="totalsc">   16.51   16.93</time>
 </calculation>
 <calculation>
  <scstep>
   <time name="dav">    2.75    2.76</time>
   <time name="total">    3.10    3.10</time>
   <energy>
    <i name="alphaZ">     26.82694619 </i>
    <i name="ewald">  -1826.55336167 </i>
    <i name="hartreedc">   -117.12729809 </i>
    <i name="XCdc">   -134.89721699 </i>
    <i name="pawpsdc">   6908.00492874 </i>
    <i name="pawaedc">  -6633.09178757 </i>
    <i name="eentropy">     -0.00000000 </i>
    <i name="bandstr">     43.67995425 </i>
    <i name="atom">   1641.21197842 </i>
    <i name="e_fr_energy">    -91.94585672 </i>
    <i name="e_wo_entrp">    -91.94585672 </i>
    <i name="e_0_energy">    -91.94585672 </i>
   </energy>
  </scstep>
  <scstep>
   <time name="diag">    1.23    1.23</time>
   <time name="diis">    0.67    0.67</time>
   <time name="orth">    0.09    0.09</time>
   <time name="total">    2.34    2.36</time>
   <energy>
    <i name="e_fr_energy">    -91.94585672 </i>
    <i name="e_wo_entrp">    -91.94585672 </i>
    <i name="e_0_energy">    -91.94585672 </i>
   </energy>
  </scstep>
  <scstep>
   <time name="diag">    1.23    1.23</time>
   <time name="diis">    0.66    0.66</time>
   <time name="orth">    0.09    0.09</time>
   <time name="total">    2.34    2.36</time>
   <energy>
    <i name="e_fr_energy">    -91.94585672 </i>
    <i name="e_wo_entrp">    -91.94585672 </i>
    <i name="e_0_energy">    -91.94585672 </i>
   </energy>
  </scstep>
  <scstep>
   <time name="diag">    1.23    1.23</time>
   <time name="diis">    0.66    0.66</time>
   <time name="orth">    0.09    0.09</time>
   <time name="total">    2.33    2.35</time>
   <energy>
    <i name="e_fr_energy">    -91.94585672 </i>
    <i name="e_wo_entrp">    -91.94585672 </i>
    <i name="e_0_energy">    -91.94585672 </i>
   </energy>
  </scstep>
  <scstep>
   <time name="diag">    1.24    1.24</time>
   <time name="diis">    0.66    0.66</time>
   <time name="orth">    0.09    0.09</time>
   <time name="total">    2.10    2.12</time>
   <energy>
    <i name="alphaZ">     26.82694619 </i>
    <i name="ewald">  -1826.55336167 </i>
    <i name="hartreedc">   -117.12729809 </i>
    <i name="XCdc">   -134.89721699 </i>
    <i name="pawpsdc">   6908.00492876 </i>
    <i name="pawaedc">  -6633.09178759 </i>
    <i name="eentropy">     -0.00000000 </i>
    <i name="bandstr">     43.67995425 </i>
    <i name="atom">   1641.21197842 </i>
    <i name="e_fr_energy">    -91.94585672 </i>
    <i name="e_wo_entrp">    -91.94585672 </i>
    <i name="e_0_energy">    -91.94585672 </i>
   </energy>
  </scstep>
  <structure>
   <crystal>
    <varray name="basis" >
     <v>       0.00000000       5.43581180       5.43581180 </v>
     <v>       5.43581180       0.00000000       5.43581180 </v>
     <v>       5.43581180       5.43581180       0.00000000 </v>
    </varray>
    <i name="volume">    321.23527682 </i>
    <varray name="rec_basis" >
     <v>      -0.09198258       0.09198258       0.09198258 </v>
     <v>       0.09198258      -0.09198258       0.09198258 </v>
     <v>       0.09198258       0.09198258      -0.09198258 </v>
    </varray>
   </crystal>
   <varray name="positions" >
    <v>       0.12503389       0.12512838       0.12544094 </v>
    <v>       0.62503444       0.12512956       0.12544034 </v>
    <v>       0.12503441       0.62512796       0.12544208 </v>
    <v>       0.62503379       0.62512939       0.12544259 </v>
    <v>       0.12503397       0.12512759       0.62544099 </v>
    <v>       0.62503330       0.12512970       0.62544108 </v>
    <v>       0.12503332       0.62512829       0.62544235 </v>
    <v>       0.62503426       0.62512958       0.62544182 </v>
    <v>       0.00003446       0.00012796       0.00044093 </v>
    <v>       0.50003400       0.00012940       0.00044099 </v>
    <v>       0.00003394       0.50012840       0.00044223 </v>
    <v>       0.50003457       0.50012960       0.00044176 </v>
    <v>       0.00003345       0.00012838       0.50044087 </v>
    <v>       0.50003417       0.00012974       0.50044034 </v>
    <v>       0.00003439       0.50012765       0.50044206 </v>
    <v>       0.50003342       0.50012976       0.50044252 </v>
   </varray>
  </structure>
  <varray name="forces" >
   <v>       0.00000566       0.00001017       0.00001390 </v>
   <v>       0.00000664       0.00000696      -0.00000364 </v>
   <v>      -0.00000055       0.00000352       0.00001310 </v>
   <v>      -0.00001141       0.00000026       0.00001107 </v>
   <v>       0.00000859       0.00000958       0.00002652 </v>
   <v>      -0.00000483       0.00000977       0.00001342 </v>
   <v>      -0.00000292       0.00000096       0.00002232 </v>
   <v>      -0.00000574      -0.00000496       0.00000642 </v>
   <v>       0.00000491      -0.00000488      -0.00000549 </v>
   <v>       0.00000433      -0.00000025      -0.00001110 </v>
   <v>       0.00000249      -0.00000796      -0.00001099 </v>
   <v>      -0.00000682      -0.00001249      -0.00002111 </v>
   <v>       0.00000762       0.00000347      -0.00000973 </v>
   <v>      -0.00000219       0.00000187      -0.00002509 </v>
   <v>       0.00000409      -0.00001376      -0.00000856 </v>
   <v>      -0.00000988      -0.00000228      -0.00001104 </v>
  </varray>
  <varray name="stress" >
   <v>      -0.02172899       0.00038531       0.00013862 </v>
   <v>       0.00038531      -0.02172951      -0.00001161 </v>
   <v>       0.00013857      -0.00001166      -0.02173104 </v>
  </varray>
  <energy>
   <i name="e_fr_energy">    -91.94585672 </i>
   <i name="e_wo_entrp">    -91.94585672 </i>
   <i name="e_0_energy">    -91.94585672 </i>
  </energy>
  <time name="totalsc">   16.51   16.61</time>
 </calculation>
 <calculation>
  <scstep>
   <time name="dav">    2.75    2.75</time>
   <time name="total">    3.09    3.09</time>
   <energy>
    <i name="alphaZ">     26.82694619 </i>
    <i name="ewald">  -1826.55336167 </i>
    <i name="hartreedc">   -117.12729809 </i>
    <i name="XCdc">   -134.89721699 </i>
    <i name="pawpsdc">   6908.00492876 </i>
    <i name="pawaedc">  -6633.09178759 </i>
    <i name="eentropy">     -0.00000000 </i>
    <i name="bandstr">     43.67995425 </i>
    <i name="atom">   1641.21197842 </i>
    <i name="e_fr_energy">    -91.94585672 </i>
    <i name="e_wo_entrp">    -91.94585672 </i>
    <i name="e_0_energy">    -91.94585672 </i>
   </energy>
  </scstep>
  <scstep>
   <time name="diag">    1.23    1.23</time>
   <time name="diis">    0.67    0.67</time>
   <time name="orth">    0.09    0.09</time>
   <time name="total">    2.35    2.36</time>
   <energy>
    <i name="e_fr_energy">    -91.94585672 </i>
    <i name="e_wo_entrp">    -91.94585672 </i>
    <i name="e_0_energy">    -91.94585672 </i>
   </energy>
  </scstep>
  <scstep>
   <time name="diag">    1.23    1.23</time>
   <time name="diis">    0.66    0.66</time>
   <time name="orth">    0.09    0.09</time>
   <time name="total">    2.34    2.35</time>
   <energy>
    <i name="e_fr_energy">    -91.94585672 </i>
    <i name="e_wo_entrp">    -91.94585672 </i>
    <i name="e_0_energy">    -91.94585672 </i>
   </energy>
  </scstep>
  <scstep>
   <time name="diag">    1.23    1.23</time>
   <time name="diis">    0.66    0.66</time>
   <time name="orth">    0.09    0.09</time>
   <time name="total">    2.34    2.35</time>
   <energy>
    <i name="e_fr_energy">    -91.94585672 </i>
    <i name="e_wo_entrp">    -91.94585672 </i>
    <i name="e_0_energy">    -91.94585672 </i>
   </energy>
  </scstep>
  <scstep>
   <time name="diag">    1.23    1.23</time>
   <time name="diis">    0.66    0.66</time>
   <time name="orth">    0.09    0.09</time>
   <time name="total">    2.09    2.11</time>
   <energy>
    <i name="alphaZ">     26.82694619 </i>
    <i name="ewald">  -1826.55336167 </i>
    <i name="hartreedc">   -117.12729809 </i>
    <i name="XCdc">   -134.89721699 </i>
    <i name="pawpsdc">   6908.00492876 </i>
    <i name="pawaedc">  -6633.09178759 </i>
    <i name="eentropy">     -0.00000000 </i>
    <i name="bandstr">     43.67995425 </i>
    <i name="atom">   1641.21197842 </i>
    <i name="e_fr_energy">    -91.94585672 </i>
    <i name="e_wo_entrp">    -91.94585672 </i>
    <i name="e_0_energy">    -91.94585672 </i>
   </energy>
  </scstep>
  <structure>
   <crystal>
    <varray name="basis" >
     <v>       0.00000000       5.43581180       5.43581180 </v>
     <v>       5.43581180       0.00000000       5.43581180 </v>
     <v>       5.43581180       5.43581180       0.00000000 </v>
    </varray>
    <i name="volume">    321.23527682 </i>
    <varray name="rec_basis" >
     <v>      -0.09198258       0.09198258       0.09198258 </v>
     <v>       0.09198258      -0.09198258       0.09198258 </v>
     <v>       0.09198258       0.09198258      -0.09198258 </v>
    </varray>
   </crystal>
   <varray name="positions" >
    <v>       0.12503389       0.12512838       0.12544094 </v>
    <v>       0.62503444       0.12512956       0.12544034 </v>
    <v>       0.12503441       0.62512796       0.12544208 </v>
    <v>       0.62503379       0.62512939       0.12544259 </v>
    <v>       0.12503397       0.12512759       0.62544099 </v>
    <v>       0.62503330       0.12512970       0.62544108 </v>
    <v>       0.12503332       0.62512829       0.62544235 </v>
    <v>       0.62503426       0.62512958       0.62544182 </v>
    <v>       0.00003446       0.00012796       0.00044093 </v>
    <v>       0.50003400       0.00012940       0.00044099 </v>
    <v>       0.00003394       0.50012840       0.00044223 </v>
    <v>       0.50003457       0.50012960       0.00044176 </v>
    <v>       0.00003345       0.00012838       0.50044087 </v>
    <v>       0.50003417       0.00012974       0.50044034 </v>
    <v>       0.00003439       0.50012765       0.50044206 </v>
    <v>       0.50003342       0.50012976       0.50044252 </v>
   </varray>
  </structure>
  <varray name="forces" >
   <v>       0.00000566       0.00001017       0.00001390 </v>
   <v>       0.00000664       0.00000696      -0.00000364 </v>
   <v>      -0.00000055       0.00000352       0.00001310 </v>
   <v>      -0.00001141       0.00000026       0.00001107 </v>
   <v>       0.00000859       0.00000958       0.00002653 </v>
   <v>      -0.00000483       0.00000977       0.00001342 </v>
   <v>      -0.00000292       0.00000096       0.00002232 </v>
   <v>      -0.00000574      -0.00000496       0.00000642 </v>
   <v>       0.00000491      -0.00000488      -0.00000549 </v>
   <v>       0.00000433      -0.00000025      -0.00001110 </v>
   <v>       0.00000249      -0.00000796      -0.00001099 </v>
   <v>      -0.00000682      -0.00001249      -0.00002111 </v>
   <v>       0.00000762       0.00000347      -0.00000973 </v>
   <v>      -0.00000219       0.00000187      -0.00002509 </v>
   <v>       0.00000409      -0.00001376      -0.00000856 </v>
   <v>      -0.00000988      -0.00000227      -0.00001104 </v>
  </varray>
  <varray name="stress" >
   <v>      -0.02172896       0.00038534       0.00013860 </v>
   <v>       0.00038535      -0.02172946      -0.00001158 </v>
   <v>       0.00013856      -0.00001161      -0.02173102 </v>
  </varray>
  <energy>
   <i name="e_fr_energy">    -91.94585672 </i>
   <i name="e_wo_entrp">    -91.94585672 </i>
   <i name="e_0_energy">    -91.94585672 </i>
  </energy>
  <time name="totalsc">   19.73   19.83</time>
 </calculation>
 <calculation>
  <scstep>
   <time name="dav">    3.58    3.58</time>
   <time name="total">    3.92    3.92</time>
   <energy>
    <i name="alphaZ">     26.82694619 </i>
    <i name="ewald">  -1826.55336165 </i>
    <i name="hartreedc">   -117.12729810 </i>
    <i name="XCdc">   -134.89721699 </i>
    <i name="pawpsdc">   6908.00492876 </i>
    <i name="pawaedc">  -6633.09178759 </i>
    <i name="eentropy">     -0.00000000 </i>
    <i name="bandstr">     43.67995425 </i>
    <i name="atom">   1641.21197842 </i>
    <i name="e_fr_energy">    -91.94585672 </i>
    <i name="e_wo_entrp">    -91.94585672 </i>
    <i name="e_0_energy">    -91.94585672 </i>
   </energy>
  </scstep>
  <scstep>
   <time name="diag">    1.24    1.24</time>
   <time name="diis">    1.17    1.17</time>
   <time name="orth">    0.09    0.09</time>
   <time name="total">    2.86    2.87</time>
   <energy>
    <i name="e_fr_energy">    -91.94585672 </i>
    <i name="e_wo_entrp">    -91.94585672 </i>
    <i name="e_0_energy">    -91.94585672 </i>
   </energy>
  </scstep>
  <scstep>
   <time name="diag">    1.23    1.23</time>
   <time name="diis">    1.11    1.11</time>
   <time name="orth">    0.09    0.09</time>
   <time name="total">    2.78    2.80</time>
   <energy>
    <i name="e_fr_energy">    -91.94585672 </i>
    <i name="e_wo_entrp">    -91.94585672 </i>
    <i name="e_0_energy">    -91.94585672 </i>
   </energy>
  </scstep>
  <scstep>
   <time name="diag">    1.23    1.23</time>
   <time name="diis">    0.75    0.75</time>
   <time name="orth">    0.09    0.09</time>
   <time name="total">    2.43    2.44</time>
   <energy>
    <i name="e_fr_energy">    -91.94585672 </i>
    <i name="e_wo_entrp">    -91.94585672 </i>
    <i name="e_0_energy">    -91.94585672 </i>
   </energy>
  </scstep>
  <scstep>
   <time name="diag">    1.27    1.27</time>
   <time name="diis">    0.69    0.69</time>
   <time name="orth">    0.09    0.09</time>
   <time name="total">    2.16    2.18</time>
   <energy>
    <i name="alphaZ">     26.82694619 </i>
    <i name="ewald">  -1826.55336165 </i>
    <i name="hartreedc">   -117.12729797 </i>
    <i name="XCdc">   -134.89721698 </i>
    <i name="pawpsdc">   6908.00527343 </i>
    <i name="pawaedc">  -6633.09213225 </i>
    <i name="eentropy">     -0.00000000 </i>
    <i name="bandstr">     43.67995409 </i>
    <i name="atom">   1641.21197842 </i>
    <i name="e_fr_energy">    -91.94585672 </i>
    <i name="e_wo_entrp">    -91.94585672 </i>
    <i name="e_0_energy">    -91.94585672 </i>
   </energy>
  </scstep>
  <structure>
   <crystal>
    <varray name="basis" >
     <v>       0.00000000       5.43581180       5.43581180 </v>
     <v>       5.43581180       0.00000000       5.43581180 </v>
     <v>       5.43581180       5.43581180       0.00000000 </v>
    </varray>
    <i name="volume">    321.23527682 </i>
    <varray name="rec_basis" >
     <v>      -0.09198258       0.09198258       0.09198258 </v>
     <v>       0.09198258      -0.09198258       0.09198258 </v>
     <v>       0.09198258       0.09198258      -0.09198258 </v>
    </varray>
   </crystal>
   <varray name="positions" >
    <v>       0.12503370       0.12512828       0.12544037 </v>
    <v>       0.62503531       0.12512994       0.12543951 </v>
    <v>       0.12503470       0.62512849       0.12544196 </v>
    <v>       0.62503408       0.62512920       0.12544238 </v>
    <v>       0.12503359       0.12512776       0.62544185 </v>
    <v>       0.62503358       0.12513002       0.62544102 </v>
    <v>       0.12503329       0.62512821       0.62544225 </v>
    <v>       0.62503470       0.62512923       0.62544208 </v>
    <v>       0.00003425       0.00012827       0.00044080 </v>
    <v>       0.50003417       0.00012937       0.00044063 </v>
    <v>       0.00003335       0.50012843       0.00044197 </v>
    <v>       0.50003471       0.50012937       0.00044217 </v>
    <v>       0.00003269       0.00012791       0.50044130 </v>
    <v>       0.50003407       0.00013012       0.50044037 </v>
    <v>       0.00003456       0.50012749       0.50044255 </v>
    <v>       0.50003303       0.50012927       0.50044268 </v>
   </varray>
  </structure>
  <varray name="forces" >
   <v>       0.00006454       0.00007152       0.00002537 </v>
   <v>       0.00004687      -0.00000154      -0.00012075 </v>
   <v>      -0.00003815      -0.00001565      -0.00007883 </v>
   <v>       0.00003519      -0.00001021      -0.00001079 </v>
   <v>      -0.00009629      -0.00004738       0.00002453 </v>
   <v>      -0.00002713      -0.00002013      -0.00006034 </v>
   <v>       0.00001679       0.00001179       0.00000768 </v>
   <v>       0.00000822      -0.00006801      -0.00001035 </v>
   <v>      -0.00001600       0.00003180      -0.00000678 </v>
   <v>       0.00003607       0.00001688      -0.00001048 </v>
   <v>       0.00002051       0.00007930       0.00005367 </v>
   <v>      -0.00002043      -0.00005394       0.00001010 </v>
   <v>       0.00000651       0.00003357       0.00011871 </v>
   <v>      -0.00003863       0.00001162      -0.00002845 </v>
   <v>      -0.00002679      -0.00006277       0.00000056 </v>
   <v>       0.00002871       0.00002317       0.00008616 </v>
  </varray>
  <varray name="stress" >
   <v>      -0.02173200      -0.00079529      -0.00027925 </v>
   <v>      -0.00079530      -0.02173213       0.00004067 </v>
   <v>      -0.00027921       0.00004073      -0.02173344 </v>
  </varray>
  <energy>
   <i name="e_fr_energy">    -91.94585672 </i>
   <i name="e_wo_entrp">    -91.94585672 </i>
   <i name="e_0_energy">    -91.94585672 </i>
  </energy>
