16
Lattice="0.0 5.443702372939453 5.443702372939453 5.443702372939453 0.0 5.443702372939453 5.443702372939453 5.443702372939453 0.0" Properties=species:S:1:pos:R:3:forces:R:3:magmoms:R:1 energy=-86.7817719 stress="-0.00788438307987074 0.0 0.0 0.0 -0.00788438307987074 0.0 0.0 0.0 -0.00788438307987074" dipole="_JSON [[0.0, 0.0, 0.0]]" magmom=0.0 free_energy=-86.78085889 pbc="T T T"
Si       1.36092559       1.36092559       1.36092559      -0.00000000      -0.00000000      -0.00000000       0.00000000
Si       0.00000000       0.00000000       0.00000000       0.00000000       0.00000000       0.00000000       0.00000000
Si       4.08277678       4.08277678       1.36092559      -0.00000000      -0.00000000      -0.00000000       0.00000000
Si       2.72185119       2.72185119       0.00000000       0.00000000       0.00000000       0.00000000       0.00000000
Si       4.08277678       1.36092559       4.08277678      -0.00000000      -0.00000000      -0.00000000       0.00000000
Si       2.72185119       0.00000000       2.72185119       0.00000000       0.00000000       0.00000000       0.00000000
Si       6.80462797       4.08277678       4.08277678      -0.00000000      -0.00000000      -0.00000000       0.00000000
Si       5.44370237       2.72185119       2.72185119       0.00000000       0.00000000       0.00000000       0.00000000
Si       1.36092559       4.08277678       4.08277678      -0.00000000      -0.00000000      -0.00000000       0.00000000
Si       0.00000000       2.72185119       2.72185119       0.00000000       0.00000000       0.00000000       0.00000000
Si       4.08277678       6.80462797       4.08277678      -0.00000000      -0.00000000      -0.00000000       0.00000000
Si       2.72185119       5.44370237       2.72185119       0.00000000       0.00000000       0.00000000       0.00000000
Si       4.08277678       4.08277678       6.80462797      -0.00000000      -0.00000000      -0.00000000       0.00000000
Si       2.72185119       2.72185119       5.44370237       0.00000000       0.00000000       0.00000000       0.00000000
Si       6.80462797       6.80462797       6.80462797      -0.00000000      -0.00000000      -0.00000000       0.00000000
Si       5.44370237       5.44370237       5.44370237       0.00000000       0.00000000       0.00000000       0.00000000
16
Lattice="0.0 5.443702372939453 5.443702372939453 5.443702372939453 0.0 5.443702372939453 5.443702372939453 5.443702372939453 0.0" Properties=species:S:1:pos:R:3:forces:R:3:magmoms:R:1 energy=-86.74541445 stress="-0.008070168021515547 -0.0017465101498003338 0.0014893418796789874 -0.0017465101498003338 -0.008063082385729442 0.0018058706277684314 0.0014893418796789874 0.0018058706277684314 -0.008030668861948233" dipole="_JSON [[0.0, 0.0, 0.0]]" magmom=0.0 free_energy=-86.74450401 pbc="T T T"
Si       1.35216164       1.37335428       1.35193012      -0.02295504      -0.23624205       0.23600133       0.00000000
Si       0.00078047      -0.00911242       0.00750631       0.01096227       0.15940132      -0.18188360       0.00000000
Si       4.09950763       4.07902735       1.36153081      -0.32533164       0.09634212       0.25698025       0.00000000
Si       2.71342981       2.72022077       0.01936894       0.16782572       0.14447563      -0.18141178       0.00000000
Si       4.09469784       1.37575582       4.06949526      -0.16926449      -0.35204470       0.24881228       0.00000000
Si       2.72624058      -0.00000125       2.71825869      -0.10798689       0.14973422      -0.00372147       0.00000000
Si       6.81598680       4.07181689       4.07459591      -0.12850374       0.11083846       0.11962367       0.00000000
Si       5.44064177       2.70811030       2.72659040       0.22210329       0.24269848      -0.17498577       0.00000000
Si       1.36853215       4.07155071       4.09618271      -0.31467629       0.06654979      -0.19056564       0.00000000
Si      -0.01859547       2.72246871       2.71527960       0.18628103       0.06585984       0.10387000       0.00000000
Si       4.07335039       6.81927657       4.08338234       0.04313299      -0.15388704       0.16944337       0.00000000
Si       2.71227912       5.44376119       2.75326633       0.12057876       0.00816040      -0.42844593       0.00000000
Si       4.07008661       4.07903845       6.80528089       0.07334761       0.09021452      -0.11747396       0.00000000
Si       2.71890304       2.72594071       5.43190271       0.13310121      -0.17088230       0.15740627       0.00000000
Si       6.80315194       6.81441230       6.79917853       0.04496634      -0.27692532       0.05589791       0.00000000
Si       5.43815124       5.43701862       5.44154449       0.06641888       0.05570665      -0.06954693       0.00000000
16
Lattice="0.0 5.443702372939453 5.443702372939453 5.443702372939453 0.0 5.443702372939453 5.443702372939453 5.443702372939453 0.0" Properties=species:S:1:pos:R:3:forces:R:3:magmoms:R:1 energy=-86.74139924 stress="-0.008068738534921955 0.0030810874693297735 -0.0008559799913415389 0.0030810874693297735 -0.008084895605037655 -0.0015325132498650426 -0.0008559799913415389 -0.0015325132498650426 -0.008023648893079643" dipole="_JSON [[0.0, 0.0, 0.0]]" magmom=0.0 free_energy=-86.74048933 pbc="T T T"
Si       1.36058838       1.35442512       1.36718946      -0.04723138      -0.04224369      -0.33300111       0.00000000
Si      -0.00293761      -0.01427130      -0.04020938       0.00702201       0.17325302       0.57021155       0.00000000
Si       4.08772920       4.08103386       1.36874588      -0.04111402       0.05465350      -0.25253832       0.00000000
Si       2.71343972       2.73215141      -0.00788507       0.08632736      -0.15635805       0.22564319       0.00000000
Si       4.08578570       1.37350513       4.08882631       0.08377541      -0.18264896      -0.36714684       0.00000000
Si       2.73244570       0.00248941       2.71049813      -0.11010585      -0.07720962       0.22935777       0.00000000
Si       6.79423497       4.09386143       4.10425206       0.18723293       0.05640790      -0.34122905       0.00000000
Si       5.44758952       2.73669193       2.72620757       0.13171643      -0.16195085      -0.02095502       0.00000000
Si       1.34950534       4.07045991       4.08027271       0.34977073       0.01232391      -0.08216458       0.00000000
Si       0.01068877       2.73000542       2.71393235      -0.23272726      -0.28804594       0.05418219       0.00000000
Si       4.07872062       6.80183065       4.08637291       0.08289520       0.10756293      -0.06798638       0.00000000
Si       2.72279508       5.43893429       2.72072105       0.01171992      -0.04017284       0.10716814       0.00000000
Si       4.07392574       4.06278118       6.79694385       0.16227985       0.21764931       0.07898967       0.00000000
Si       2.74159474       2.71158474       5.43391443      -0.40327916       0.04672852       0.09379864       0.00000000
Si       6.81772742       6.79659894       6.80591025      -0.12462168       0.15237030       0.01874309       0.00000000
Si       5.44330807       5.43973581       5.45102196      -0.14366049       0.12768054       0.08692705       0.00000000
16
Lattice="0.0 5.443702372939453 5.443702372939453 5.443702372939453 0.0 5.443702372939453 5.443702372939453 5.443702372939453 0.0" Properties=species:S:1:pos:R:3:forces:R:3:magmoms:R:1 energy=-86.73291297 stress="-0.008127447755103332 0.0026455735871888713 0.0006524765225184841 0.0026455735871888713 -0.008046589247796368 0.00033603011241742874 0.0006524765225184841 0.00033603011241742874 -0.008067301296374028" dipole="_JSON [[0.0, 0.0, 0.0]]" magmom=0.0 free_energy=-86.73199508 pbc="T T T"
Si       1.36415384       1.34834301       1.34370671      -0.10017304       0.25580294       0.15970844       0.00000000
Si       0.01233939       0.00492270      -0.01825803      -0.14079720      -0.09100867       0.13467338       0.00000000
Si       4.07741376       4.09968456       1.35418163       0.11324619      -0.23296695      -0.19461392       0.00000000
Si       2.72119639       2.71011486      -0.00773699       0.14327206       0.05654918       0.10888082       0.00000000
Si       4.10409233       1.35323760       4.06810642      -0.26450023       0.11292104      -0.11803180       0.00000000
Si       2.71149064       0.00234536       2.70663349       0.09058258      -0.06702736       0.27180031       0.00000000
Si       6.80665353       4.07666903       4.09934630       0.08732402      -0.01792318      -0.36738358       0.00000000
Si       5.43939545       2.73804561       2.71164878       0.11389726      -0.05587163       0.00083566       0.00000000
Si       1.36798106       4.08356410       4.08432096      -0.11742360      -0.10019069      -0.04920606       0.00000000
Si       0.01309025       2.73550356       2.72150254      -0.16002766      -0.25093062      -0.07360618       0.00000000
Si       4.08431382       6.79558312       4.08359207       0.10625844       0.02408294      -0.19202026       0.00000000
Si       2.72517130       5.40782114       2.72872716      -0.05740078       0.57994339      -0.11619469       0.00000000
Si       4.08244755       4.09415031       6.81593830       0.00161245      -0.17240539      -0.39064971       0.00000000
Si       2.71467969       2.71728092       5.41078481       0.36038661      -0.02889410       0.42554390       0.00000000
Si       6.81135230       6.81268079       6.80444125       0.02960985      -0.15188139      -0.01109764       0.00000000
Si       5.46172186       5.43837859       5.42451271      -0.20586694       0.13980048       0.41136133       0.00000000
16
Lattice="0.0 5.443702372939453 5.443702372939453 5.443702372939453 0.0 5.443702372939453 5.443702372939453 5.443702372939453 0.0" Properties=species:S:1:pos:R:3:forces:R:3:magmoms:R:1 energy=-86.75921247 stress="-0.007973151451692936 -2.8238497187288383e-05 0.00012013173672693753 -2.8238497187288383e-05 -0.007966283338741376 -0.00030141857878244734 0.00012013173672693753 -0.00030141857878244734 -0.007988340913131867" dipole="_JSON [[0.0, 0.0, 0.0]]" magmom=0.0 free_energy=-86.75829779 pbc="T T T"
Si       1.34909868       1.37430021       1.35778254       0.31246142      -0.09536174       0.02772096       0.00000000
Si       0.00556643      -0.00209299      -0.00011800       0.01877067       0.09345153      -0.02046846       0.00000000
Si       4.09512611       4.08234259       1.35410772      -0.07351633       0.02059937       0.17225694       0.00000000
Si       2.73385811       2.73529063      -0.00834109      -0.19048202      -0.12568021       0.09708770       0.00000000
Si       4.09313676       1.37758358       4.09227157      -0.07318966      -0.32027729      -0.06557805       0.00000000
Si       2.73252128       0.00394481       2.72785473      -0.16066598       0.03277999      -0.05158691       0.00000000
Si       6.79109492       4.07313182       4.07927009       0.22213637       0.24012165       0.01094971       0.00000000
Si       5.44691385       2.71178877       2.72933914       0.00477973       0.10114230      -0.22094081       0.00000000
Si       1.36122883       4.08459527       4.07780243       0.04323394      -0.07920190       0.08912820       0.00000000
Si      -0.00337219       2.72672469       2.72211384       0.03610048      -0.12682735       0.11939490       0.00000000
Si       4.08097842       6.79903847       4.08818830      -0.01270903       0.11350003      -0.11973839       0.00000000
Si       2.71908122       5.44259570       2.72494886       0.11999485      -0.02660837      -0.12132877       0.00000000
Si       4.10042311       4.08013411       6.81336793      -0.17403627       0.19295567      -0.16011978       0.00000000
Si       2.73267215       2.71740367       5.44222339      -0.01190684       0.28891415       0.04794794       0.00000000
Si       6.82092065       6.81562929       6.80058685      -0.10857600      -0.12095983       0.06237624       0.00000000
Si       5.44896663       5.45999067       5.43899963       0.04760467      -0.18854800       0.13289857       0.00000000
16
Lattice="0.0 5.443702372939453 5.443702372939453 5.443702372939453 0.0 5.443702372939453 5.443702372939453 5.443702372939453 0.0" Properties=species:S:1:pos:R:3:forces:R:3:magmoms:R:1 energy=-86.7544466 stress="-0.007982234532678559 -0.0010235877297854528 0.0014652371776763355 -0.0010235877297854528 -0.008007358978683708 0.00040794458707907273 0.0014652371776763355 0.00040794458707907273 -0.008052679874680642" dipole="_JSON [[0.0, 0.0, 0.0]]" magmom=0.0 free_energy=-86.75353037 pbc="T T T"
Si       1.35033732       1.37055198       1.35496454       0.10587190      -0.17500634      -0.01514254       0.00000000
Si      -0.00821484      -0.00790039       0.00682657       0.20503220       0.13222587      -0.20768850       0.00000000
Si       4.09380748       4.09735393       1.35657494      -0.26486499      -0.35000784       0.15210690       0.00000000
Si       2.72281565       2.70657566      -0.00683933       0.06228900       0.27815999       0.01625775       0.00000000
Si       4.07381672       1.35589739       4.09086582       0.09142598       0.08037464      -0.06174039       0.00000000
Si       2.72418212       0.00905432       2.71374617      -0.11754724      -0.10350132       0.02743950       0.00000000
Si       6.79590245       4.08428884       4.07881315       0.27334008      -0.02541976       0.00082990       0.00000000
Si       5.45070869       2.71894591       2.72574395      -0.20738604       0.02089971      -0.03947259       0.00000000
Si       1.37680281       4.08638569       4.07916754      -0.39313696      -0.13522096       0.03125215       0.00000000
Si      -0.00785864       2.70485746       2.71807999       0.13049663       0.24569995       0.13416496       0.00000000
Si       4.08765783       6.79377400       4.07763107      -0.03834971      -0.05986729       0.12448664       0.00000000
Si       2.71279008       5.44058405       2.72973792       0.15035091       0.13528391      -0.27465530       0.00000000
Si       4.08380463       4.07267214       6.80715253       0.03990054       0.16807240      -0.01797169       0.00000000
Si       2.71502535       2.72846873       5.44723532       0.15887720      -0.01701527      -0.09130921       0.00000000
Si       6.80629613       6.81808177       6.79325032       0.01112121      -0.14508377       0.22528594       0.00000000
Si       5.45952783       5.44288310       5.44789709      -0.20742072      -0.04959392      -0.00384353       0.00000000
16
Lattice="0.0 5.443702372939453 5.443702372939453 5.443702372939453 0.0 5.443702372939453 5.443702372939453 5.443702372939453 0.0" Properties=species:S:1:pos:R:3:forces:R:3:magmoms:R:1 energy=-86.75998442 stress="-0.00798896059512392 0.00015680437271301372 0.0005658644859936282 0.00015680437271301372 -0.00800232764200375 -9.508779370649521e-05 0.0005658644859936282 -9.508779370649521e-05 -0.007984715782216463" dipole="_JSON [[0.0, 0.0, 0.0]]" magmom=0.0 free_energy=-86.75906993 pbc="T T T"
Si       1.36177370       1.36921061       1.37309842       0.03018185      -0.06534486      -0.18548704       0.00000000
Si      -0.00421684       0.00383762      -0.00398504       0.16265079       0.11929768       0.03387889       0.00000000
Si       4.08963834       4.10300141       1.36341675      -0.05277106      -0.15460412      -0.05891206       0.00000000
Si       2.73309054       2.72700147       0.00238484      -0.10082184       0.01482003       0.02590666       0.00000000
Si       4.08167359       1.36940241       4.08542895       0.07980950       0.08588294      -0.04899988       0.00000000
Si       2.73462363       0.00958231       2.72325762      -0.15521769      -0.03650539       0.05783917       0.00000000
Si       6.80805934       4.07488894       4.07085803       0.06697179       0.25073571       0.25750745       0.00000000
Si       5.45479332       2.73572723       2.71439336      -0.24787307      -0.09375352       0.09524378       0.00000000
Si       1.35824527       4.08202680       4.08004262      -0.05446485      -0.02222808       0.02444608       0.00000000
Si      -0.00982062       2.71644380       2.72530445       0.10839266       0.14157820      -0.03326808       0.00000000
Si       4.07938334       6.80867614       4.07364945      -0.00113066      -0.10907963       0.22082470       0.00000000
Si       2.72015173       5.44413299       2.72219711      -0.05208302       0.02009704       0.02825697       0.00000000
Si       4.08632994       4.09335302       6.81581626      -0.18926897      -0.24704211      -0.18361634       0.00000000
Si       2.70227184       2.71092374       5.44185746       0.17854868       0.17513830       0.17651292       0.00000000
Si       6.78847443       6.79995963       6.81535325       0.15501160       0.01364290      -0.09075751       0.00000000
Si       5.43646753       5.44650347       5.45826021       0.07206429      -0.09263511      -0.31937571       0.00000000
16
Lattice="0.0 5.443702372939453 5.443702372939453 5.443702372939453 0.0 5.443702372939453 5.443702372939453 5.443702372939453 0.0" Properties=species:S:1:pos:R:3:forces:R:3:magmoms:R:1 energy=-86.75683026 stress="-0.008034540569923164 -0.0002201930020822833 5.78163723009183e-05 -0.0002201930020822833 -0.007963060098598589 0.001597220285689991 5.78163723009183e-05 0.001597220285689991 -0.00797338268712303" dipole="_JSON [[0.0, 0.0, 0.0]]" magmom=0.0 free_energy=-86.75591345 pbc="T T T"
Si       1.36105278       1.37275476       1.36399570      -0.19928265      -0.18671267       0.01468121       0.00000000
Si      -0.01476457      -0.00265709       0.00272913       0.22947424      -0.03387573       0.00360563       0.00000000
Si       4.08014270       4.06440756       1.35937132      -0.17214456       0.26489718       0.00784393       0.00000000
Si       2.71048993       2.71343229      -0.00203810       0.13706639       0.05134901       0.06625731       0.00000000
Si       4.09560558       1.37138929       4.07861435      -0.08081614      -0.12777278      -0.01224908       0.00000000
Si       2.71776431       0.01587355       2.72749967       0.08100034      -0.14823106      -0.00598439       0.00000000
Si       6.81131447       4.07540943       4.09133572      -0.11808300       0.12761633      -0.21837221       0.00000000
Si       5.44092518       2.72287864       2.70658235       0.19695132       0.02561205       0.13588927       0.00000000
Si       1.37006198       4.07626717       4.08256861       0.00053035       0.19556683       0.18200405       0.00000000
Si       0.00663240       2.72618986       2.74390843      -0.01927196      -0.03670494      -0.16076159       0.00000000
Si       4.08858230       6.81268121       4.09525030      -0.04416942      -0.14516915      -0.07374322       0.00000000
Si       2.72337702       5.45220871       2.72798453       0.01682861      -0.02204090      -0.14778240       0.00000000
Si       4.09327612       4.08117036       6.82275266      -0.13779824       0.05540655      -0.11399033       0.00000000
Si       2.72715096       2.70672016       5.44331356       0.17410144       0.32823320      -0.00035890       0.00000000
Si       6.80468900       6.81642111       6.78246237       0.05214221      -0.20039956       0.30228478       0.00000000
Si       5.45231720       5.44643012       5.44530156      -0.11652893      -0.14777435       0.02067593       0.00000000
16
Lattice="0.0 5.443702372939453 5.443702372939453 5.443702372939453 0.0 5.443702372939453 5.443702372939453 5.443702372939453 0.0" Properties=species:S:1:pos:R:3:forces:R:3:magmoms:R:1 energy=-86.73602783 stress="-0.008170500237023558 0.0004107130209348765 0.000323468644637459 0.0004107130209348765 -0.008149550093597272 -0.00010139391493484963 0.000323468644637459 -0.00010139391493484963 -0.008108700040519279" dipole="_JSON [[0.0, 0.0, 0.0]]" magmom=0.0 free_energy=-86.73511272 pbc="T T T"
Si       1.37371378       1.36068085       1.36083912      -0.30144410      -0.06194547      -0.09664520       0.00000000
Si       0.00321927      -0.01543046      -0.00630227      -0.00850316       0.22941629       0.15491950       0.00000000
Si       4.08260974       4.08048551       1.35358070       0.13905737      -0.09083541       0.20623838       0.00000000
Si       2.72719664       2.71209590       0.02199554      -0.13406088       0.22660067      -0.35332056       0.00000000
Si       4.09209563       1.34505007       4.07778918      -0.19303221       0.28828574       0.16747760       0.00000000
Si       2.71075028       0.01663161       2.71608537       0.18033330      -0.31081396       0.10161234       0.00000000
Si       6.79043333       4.08844513       4.07991532       0.37730242      -0.19867928       0.01358459       0.00000000
Si       5.45432089       2.71449079       2.72640691      -0.14684201      -0.00693149      -0.14162005       0.00000000
Si       1.36876122       4.09199684       4.09923335      -0.14090708      -0.20497472      -0.37757621       0.00000000
Si       0.00743154       2.72078019       2.70395242      -0.09947307       0.02358998       0.34755101       0.00000000
Si       4.07273309       6.80267106       4.09516030       0.13014872       0.03012141      -0.31114960       0.00000000
Si       2.72013109       5.42973336       2.71621133       0.03460760       0.21697168       0.04840879       0.00000000
Si       4.07555182       4.07754772       6.79836527       0.07532607       0.18700760       0.10789846       0.00000000
Si       2.70649672       2.73846073       5.45497849       0.28929526      -0.36823065      -0.21270874       0.00000000
Si       6.80330716       6.79987083       6.79204245      -0.02536736      -0.08202217       0.10984756       0.00000000
Si       5.44565194       5.43275948       5.42496862      -0.17644088       0.12243977       0.23548212       0.00000000
16
Lattice="0.0 5.443702372939453 5.443702372939453 5.443702372939453 0.0 5.443702372939453 5.443702372939453 5.443702372939453 0.0" Properties=species:S:1:pos:R:3:forces:R:3:magmoms:R:1 energy=-86.76085653 stress="-0.00797801785649424 0.0004935764382862726 4.261173151179214e-05 0.0004935764382862726 -0.00798342726010648 -0.0002513628802041249 4.261173151179214e-05 -0.0002513628802041249 -0.007952785987875527" dipole="_JSON [[0.0, 0.0, 0.0]]" magmom=0.0 free_energy=-86.75994216 pbc="T T T"
Si       1.36372937       1.35884792       1.35494300      -0.11337283      -0.00872393       0.07125110       0.00000000
Si      -0.00769391      -0.00107055      -0.01281810       0.15734754      -0.03383669       0.16700883       0.00000000
Si       4.07207680       4.09428149       1.36393547       0.16196558      -0.15518776      -0.24491195       0.00000000
Si       2.72511115       2.71735472       0.00813859      -0.15382135       0.15314090      -0.22236931       0.00000000
Si       4.08778774       1.35807879       4.08723955      -0.01502406       0.06128076      -0.24272574       0.00000000
Si       2.72517948       0.00028245       2.72164095      -0.02936291       0.03258977      -0.04695306       0.00000000
Si       6.79821189       4.09066582       4.06746718      -0.00163044      -0.10219898       0.25061406       0.00000000
Si       5.43277063       2.73130865       2.70777115       0.13028234      -0.11967110       0.10148209       0.00000000
Si       1.35575563       4.07977450       4.07364264       0.10112682       0.06056116      -0.01384634       0.00000000
Si      -0.00351028       2.73542642       2.71315063      -0.04009887      -0.18912061      -0.05150035       0.00000000
Si       4.07369744       6.80667163       4.07512810       0.12330990       0.06337890       0.02017864       0.00000000
Si       2.73279472       5.43953186       2.70586443      -0.23892971       0.08116722       0.28581916       0.00000000
Si       4.06879167       4.08012350       6.79144248      -0.02524550      -0.05099952       0.05274418       0.00000000
Si       2.71830671       2.70704241       5.42654500      -0.10406447       0.08472771       0.13824145       0.00000000
Si       6.80663112       6.79346771       6.80654229      -0.12669822       0.11998182      -0.09764866       0.00000000
Si       5.42437277       5.44422308       5.44851870       0.17421621       0.00291036      -0.16738412       0.00000000
16
Lattice="0.0 5.443702372939453 5.443702372939453 5.443702372939453 0.0 5.443702372939453 5.443702372939453 5.443702372939453 0.0" Properties=species:S:1:pos:R:3:forces:R:3:magmoms:R:1 energy=-86.75804668 stress="-0.008003804177093133 -4.869219721920936e-06 0.00033954662234951516 -4.869219721920936e-06 -0.00799526346452602 0.0008869047654000071 0.00033954662234951516 0.0008869047654000071 -0.007987912002866245" dipole="_JSON [[0.0, 0.0, 0.0]]" magmom=0.0 free_energy=-86.7571315 pbc="T T T"
Si       1.36396448       1.36911079       1.37043138      -0.05940817      -0.02915735      -0.06810229       0.00000000
Si      -0.00044658       0.00010804       0.01229315       0.12410562       0.02770934      -0.14140265       0.00000000
Si       4.08590868       4.07435337       1.34785426      -0.09179497       0.12030841       0.26777696       0.00000000
Si       2.71974362       2.72647635       0.00726621      -0.08903948      -0.00856955      -0.15216261       0.00000000
Si       4.09476714       1.35451709       4.07268673      -0.16736085       0.09210844       0.24375838       0.00000000
Si       2.73153290       0.00189672       2.71186218      -0.04202785       0.09160430       0.09244979       0.00000000
Si       6.81348711       4.10027064       4.07754006      -0.06917765      -0.22858542      -0.02441541       0.00000000
Si       5.43933135       2.71729700       2.72034353       0.10600506       0.18844973       0.06915646       0.00000000
Si       1.36834529       4.07271869       4.09294532      -0.19884917       0.07043487       0.07118954       0.00000000
Si       0.00190092       2.73970381       2.71321968      -0.09934799      -0.20537671       0.23070040       0.00000000
Si       4.06495250       6.80825832       4.08433633       0.18502441      -0.00181041      -0.11114087       0.00000000
Si       2.70575289       5.42772171       2.73368983       0.23431880       0.06645342      -0.14536580       0.00000000
Si       4.09039462       4.09709622       6.80586426      -0.04017832      -0.11897301      -0.14554356       0.00000000
Si       2.72172144       2.72825416       5.45313245       0.13472916      -0.25694527       0.02056493       0.00000000
Si       6.79882533       6.80222113       6.82378088       0.06143892      -0.05166197      -0.22700947       0.00000000
Si       5.44410193       5.44023364       5.43648788       0.01156248       0.24401117       0.01954620       0.00000000
16
Lattice="0.0 5.443702372939453 5.443702372939453 5.443702372939453 0.0 5.443702372939453 5.443702372939453 5.443702372939453 0.0" Properties=species:S:1:pos:R:3:forces:R:3:magmoms:R:1 energy=-86.75818048 stress="-0.00802165195968387 -0.0015263646518440075 0.0014116351534768322 -0.0015263646518440075 -0.007996577539374366 -0.0004322408472383072 0.0014116351534768322 -0.0004322408472383072 -0.00800354285758905" dipole="_JSON [[0.0, 0.0, 0.0]]" magmom=0.0 free_energy=-86.75726307 pbc="T T T"
Si       1.36457307       1.37152337       1.35196240      -0.16786999      -0.07675206       0.23797904       0.00000000
Si      -0.00860438       0.00161480       0.00986206       0.08186739       0.08037139      -0.15419646       0.00000000
Si       4.07590593       4.09848326       1.36311837       0.07285149      -0.25909206       0.08782411       0.00000000
Si       2.72457789       2.71416277       0.00226222       0.03922845       0.19517053       0.00735272       0.00000000
Si       4.06915784       1.35261376       4.07241302       0.20097339       0.07185677       0.12489769       0.00000000
Si       2.72235269       0.00355358       2.72113808      -0.26813932      -0.11190892      -0.02981036       0.00000000
Si       6.79529731       4.06988287       4.09084210       0.20558103       0.20191500      -0.01151569       0.00000000
Si       5.44723974       2.72718649       2.73633667      -0.18788070      -0.08162154      -0.25386070       0.00000000
Si       1.35940454       4.08683456       4.08337913      -0.10679157      -0.01296971       0.06403197       0.00000000
Si      -0.01162399       2.72139546       2.73969105       0.12589212       0.15056771      -0.32939989       0.00000000
Si       4.08665806       6.81247053       4.08735600      -0.10072927      -0.20550400      -0.00461104       0.00000000
Si       2.72112642       5.43972287       2.72770445      -0.07735881       0.22451722      -0.05436138       0.00000000
Si       4.07180369       4.09576263       6.80288346       0.04345954      -0.27068131      -0.01932159       0.00000000
Si       2.71198951       2.71148515       5.42961380       0.11246491       0.16688060       0.12872394       0.00000000
Si       6.79854544       6.81011008       6.79573143       0.03690019      -0.06541597       0.19072750       0.00000000
Si       5.44153667       5.44383933       5.44397389      -0.01044887      -0.00733364       0.01554015       0.00000000
16
Lattice="0.0 5.443702372939453 5.443702372939453 5.443702372939453 0.0 5.443702372939453 5.443702372939453 5.443702372939453 0.0" Properties=species:S:1:pos:R:3:forces:R:3:magmoms:R:1 energy=-86.74654623 stress="-0.008092838555792762 0.00024328918231584774 0.0005534771688012888 0.00024328918231584774 -0.008041471328901819 -5.654361624298644e-05 0.0005534771688012888 -5.654361624298644e-05 -0.008002410067373266" dipole="_JSON [[0.0, 0.0, 0.0]]" magmom=0.0 free_energy=-86.74563066 pbc="T T T"
Si       1.36173488       1.35643222       1.36037264      -0.08679156       0.04820286      -0.10303671       0.00000000