16
Lattice="0.0 6.5417936101197425 6.5417936101197425 6.5417936101197425 0.0 6.5417936101197425 6.5417936101197425 6.5417936101197425 0.0" Properties=species:S:1:pos:R:3:forces:R:3:magmoms:R:1 energy=-60.16885578 stress="-0.0029168561189380706 -2.567288741203931e-06 -8.96235147460217e-06 -2.567288741203931e-06 -0.002945521185825058 4.3654363128252684e-07 -8.96235147460217e-06 4.3654363128252684e-07 -0.002985797631731365" dipole="_JSON [[0.0, 0.0, 0.0]]" magmom=0.0 free_energy=-60.16052623 pbc="T T T"
Te      -0.00416758      -0.00056267      -0.02136196      -0.01295686       0.02352779       0.07996570       0.00000000
Pb       3.28729951       3.25296245       3.26247933      -0.03888677       0.04077307       0.00360381       0.00000000
Te       3.27592562       3.25844392      -0.01057952      -0.02095417       0.02505898       0.02217698       0.00000000
Pb       6.53270353       6.54730815       3.29381889       0.00598077      -0.00416175      -0.02224718       0.00000000
Te       3.27131220      -0.01117925       3.27628739      -0.01885802       0.05790307      -0.05903233       0.00000000
Pb       6.53583201       3.27070550       6.55354362       0.02370409       0.00671258      -0.00007495       0.00000000
Te       6.53431490       3.27098706       3.26211573       0.01605282       0.00973008       0.02137146       0.00000000
Pb       9.81112607       6.54435931       6.53190582      -0.01311018      -0.03162371       0.02312765       0.00000000
Te      -0.00338822       3.26853496       3.26452025       0.01073130       0.00718168       0.00426219       0.00000000
Pb       3.25902068       6.52758144       6.54025866       0.00862534       0.02355986      -0.01643703       0.00000000
Te       3.26820624       6.56410728       3.24654913       0.00600175      -0.08624676       0.06310795       0.00000000
Pb       6.54292088       9.81639486       6.55538995      -0.01038879       0.00004795      -0.02091996       0.00000000
Te       3.27591538       3.26245467       6.54179371      -0.01453484       0.01376673      -0.03335007       0.00000000
Pb       6.54721714       6.53865853       9.82040053      -0.00243539      -0.00205493       0.00469201       0.00000000
Te       6.52311270       6.55910546       6.55647039       0.04004843      -0.05405028      -0.07322404       0.00000000
Pb       9.80933364       9.81880382       9.81317012       0.02098051      -0.03012435       0.00297780       0.00000000
16
Lattice="0.0 6.5417936101197425 6.5417936101197425 6.5417936101197425 0.0 6.5417936101197425 6.5417936101197425 6.5417936101197425 0.0" Properties=species:S:1:pos:R:3:forces:R:3:magmoms:R:1 energy=-60.17063159 stress="-0.0029336072621338805 -2.3463705256932933e-06 -1.990841682864731e-06 -2.3463705256932933e-06 -0.0029602527202224425 7.684321341458937e-06 -1.990841682864731e-06 7.684321341458937e-06 -0.0029445164339274824" dipole="_JSON [[0.0, 0.0, 0.0]]" magmom=0.0 free_energy=-60.16228509 pbc="T T T"
Te       0.01788628       0.00436510       0.00096497      -0.05213215      -0.04024360      -0.00683291       0.00000000
Pb       3.25226188       3.26812292       3.26734922       0.03393841       0.00006175      -0.00428513       0.00000000
Te       3.27006939       3.26462680      -0.00043818      -0.00612032       0.01354294       0.01611199       0.00000000
Pb       6.53702143       6.52865496       3.27974303       0.01669148      -0.01642263      -0.01710887       0.00000000
Te       3.27970999       0.01709573       3.27139714      -0.01218752      -0.02847818      -0.01380024       0.00000000
Pb       6.53774684       3.26544321       6.52632884       0.00430724      -0.00792147      -0.01180910       0.00000000
Te       6.55161728       3.25988613       3.25904634      -0.04764019       0.01782318       0.02898616       0.00000000
Pb       9.81063392       6.55665509       6.54416077       0.00647121      -0.04660098      -0.01789328       0.00000000
Te      -0.01023785       3.26376687       3.27714925       0.04219989       0.00236699      -0.04692039       0.00000000
Pb       3.26929167       6.53410525       6.53949330       0.00075981       0.02400809       0.01053584       0.00000000
Te       3.27834737       6.56155472       3.25845557      -0.00768416      -0.05247375       0.03682969       0.00000000
Pb       6.53552944       9.80465275       6.51760278      -0.01132855       0.00480954       0.04146449       0.00000000
Te       3.26165888       3.26065805       6.55303339       0.02866833       0.03073080      -0.04179732       0.00000000
Pb       6.54047447       6.52556076       9.81915717      -0.00804098       0.02166864      -0.00404622       0.00000000
Te       6.53823090       6.52436220       6.53582711       0.03480381       0.04528753       0.02172646       0.00000000
Pb       9.80680447       9.80395159       9.81298755      -0.02270631       0.03184115       0.00883883       0.00000000
16
Lattice="0.0 6.5417936101197425 6.5417936101197425 6.5417936101197425 0.0 6.5417936101197425 6.5417936101197425 6.5417936101197425 0.0" Properties=species:S:1:pos:R:3:forces:R:3:magmoms:R:1 energy=-60.16909644 stress="-0.0029626506830625703 -2.8760187486066208e-06 7.280333421777016e-06 -2.8760187486066208e-06 -0.0029140850948559797 2.3861289388251696e-07 7.280333421777016e-06 2.3861289388251696e-07 -0.002939002828320387" dipole="_JSON [[0.0, 0.0, 0.0]]" magmom=0.0 free_energy=-60.1607464 pbc="T T T"
Te       0.00050562       0.00499951      -0.00995909      -0.01979536      -0.01448506       0.03076715       0.00000000
Pb       3.27783279       3.26671379       3.25505103       0.01943663      -0.00628070       0.07637387       0.00000000
Te       3.26441974       3.27688256       0.00332250       0.04091207       0.01113065      -0.02019186       0.00000000
Pb       6.53031884       6.54798031       3.27001694       0.03214075      -0.03515838       0.00947689       0.00000000
Te       3.27514753       0.00332253       3.25932864      -0.01771226      -0.00250627       0.02626194       0.00000000
Pb       6.54530358       3.26482793       6.55726340      -0.06124171       0.01008200      -0.02761910       0.00000000
Te       6.54902703       3.27135816       3.26106689       0.01841368       0.01166384       0.05049560       0.00000000
Pb       9.81323474       6.54339254       6.52970413      -0.02416007       0.05427377      -0.00773342       0.00000000
Te       0.02223360       3.27483976       3.28782038      -0.04709828      -0.01120477      -0.05261474       0.00000000
Pb       3.25976868       6.55815109       6.52818395       0.01702685      -0.06458808       0.02123391       0.00000000
Te       3.26438455       6.54721812       3.27137687       0.03267682      -0.00417882      -0.03171673       0.00000000
Pb       6.51821287       9.80163457       6.55017197       0.07948741       0.00463485       0.01719863       0.00000000
Te       3.29177551       3.28004521       6.53903158      -0.06425694      -0.01219887       0.01140011       0.00000000
Pb       6.54975873       6.53035562       9.81778961      -0.03511285       0.03513273      -0.02014229       0.00000000
Te       6.52831901       6.54170001       6.54048656       0.04522870       0.00743323      -0.01209936       0.00000000
Pb       9.82071128       9.80966078       9.82471044      -0.01594544       0.01624989      -0.07109060       0.00000000
16
Lattice="0.0 6.5417936101197425 6.5417936101197425 6.5417936101197425 0.0 6.5417936101197425 6.5417936101197425 6.5417936101197425 0.0" Properties=species:S:1:pos:R:3:forces:R:3:magmoms:R:1 energy=-60.17057379 stress="-0.0029343657615304034 2.6945156632259354e-06 -1.8221648987377363e-06 2.6945156632259354e-06 -0.002932982911493 2.165903530827505e-06 -1.8221648987377363e-06 2.165903530827505e-06 -0.0029564782799257287" dipole="_JSON [[0.0, 0.0, 0.0]]" magmom=0.0 free_energy=-60.16224076 pbc="T T T"
Te       0.00441227      -0.00330870       0.02430771      -0.02298240       0.02337294      -0.07945303       0.00000000
Pb       3.26837588       3.27199290       3.28672162       0.02579021      -0.00013733      -0.02319133       0.00000000
Te       3.26180448       3.26498044       0.00187603       0.02385271       0.03765884      -0.01150735       0.00000000
Pb       6.53849491       6.52986596       3.26884804       0.02115525       0.00700781       0.00056272       0.00000000
Te       3.26730852       0.00603472       3.25424892       0.02790959      -0.02125760       0.05573950       0.00000000
Pb       6.53479182       3.28241072       6.56036692       0.01257535      -0.03207169      -0.04044043       0.00000000
Te       6.52668181       3.27734528       3.26109073       0.06235437      -0.01996758       0.03879002       0.00000000
Pb       9.80412188       6.53307482       6.53756853       0.02474011       0.01008534      -0.00206677       0.00000000
Te       0.00996440       3.27802102       3.27148825      -0.04959395      -0.01036378      -0.00219280       0.00000000
Pb       3.26726370       6.54182650       6.54073431      -0.01044722       0.00283724      -0.00343782       0.00000000
Te       3.27882734       6.53547789       3.27083486      -0.02836864       0.04086190      -0.02396013       0.00000000
Pb       6.54078293       9.81216733       6.54428579      -0.01124955       0.01836491       0.02128042       0.00000000
Te       3.27287341       3.28424529       6.54092485      -0.01826859      -0.05190612       0.01433380       0.00000000
Pb       6.55740893       6.53873508       9.80791310      -0.02655477       0.01578667       0.02716437       0.00000000
Te       6.54280099       6.54534799       6.54448973       0.00347721      -0.00529298       0.01733657       0.00000000
Pb       9.82561005       9.82408384       9.81763482      -0.03438969      -0.01497858       0.01104226       0.00000000
16
Lattice="0.0 6.5417936101197425 6.5417936101197425 6.5417936101197425 0.0 6.5417936101197425 6.5417936101197425 6.5417936101197425 0.0" Properties=species:S:1:pos:R:3:forces:R:3:magmoms:R:1 energy=-60.16870636 stress="-0.002961181831270921 4.8791874119949715e-06 2.4589673503242273e-06 4.8791874119949715e-06 -0.0029803464599400553 -1.220314898256191e-06 2.4589673503242273e-06 -1.220314898256191e-06 -0.0029293432316198236" dipole="_JSON [[0.0, 0.0, 0.0]]" magmom=0.0 free_energy=-60.16036704 pbc="T T T"
Te      -0.00311784       0.00729004       0.00217821       0.00165995      -0.00769778      -0.00226675       0.00000000
Pb       3.26190589       3.24602900       3.28002932       0.01497479       0.07602459      -0.02668904       0.00000000
Te       3.28216744       3.25575587       0.01639291      -0.06146955       0.03264944      -0.05037251       0.00000000
Pb       6.53749467       6.56810642       3.27691503      -0.01958623      -0.03760107      -0.01430499       0.00000000
Te       3.26753799       0.01237738       3.27200809       0.00420323      -0.07544046       0.01588520       0.00000000
Pb       6.54308512       3.27165808       6.54024233       0.01213508       0.00831085       0.00235179       0.00000000
Te       6.54813586       3.27900336       3.27444489      -0.01394001      -0.02563320       0.02063700       0.00000000
Pb       9.83081632       6.52822885       6.53715729      -0.02376959       0.00157875       0.03699891       0.00000000
Te       0.00824654       3.25913249       3.28654170      -0.03757220       0.06337275      -0.04314386       0.00000000
Pb       3.27802386       6.53998354       6.54713561      -0.00022175      -0.00694258      -0.03492700       0.00000000
Te       3.26503068       6.52697508       3.27946928       0.00741786       0.05219240      -0.01996640       0.00000000
Pb       6.55122460       9.81383483       6.54157404      -0.02700886       0.00789610       0.00902650       0.00000000
Te       3.24962536       3.26255273       6.53713853       0.08516811      -0.00151185       0.04969242       0.00000000
Pb       6.54413072       6.55564396       9.80749414       0.01675560       0.00245865       0.00988260       0.00000000
Te       6.53399209       6.55134971       6.54052625       0.02503320      -0.03270907       0.01864379       0.00000000
Pb       9.79900429       9.82487522       9.80411540       0.01622036      -0.05694753       0.02855234       0.00000000
16
Lattice="0.0 6.5417936101197425 6.5417936101197425 6.5417936101197425 0.0 6.5417936101197425 6.5417936101197425 6.5417936101197425 0.0" Properties=species:S:1:pos:R:3:forces:R:3:magmoms:R:1 energy=-60.16855941 stress="-0.002956275405913101 -1.7263452506371762e-06 8.868747562241298e-07 -1.7263452506371762e-06 -0.002961056682771438 5.693429726521198e-06 8.868747562241298e-07 5.693429726521198e-06 -0.0029613234948035515" dipole="_JSON [[0.0, 0.0, 0.0]]" magmom=0.0 free_energy=-60.16020178 pbc="T T T"
Te       0.01690526      -0.00465937       0.00032820      -0.05776741      -0.01014154      -0.02421728       0.00000000
Pb       3.27497197       3.26300757       3.27091746      -0.03798894       0.01658582       0.03689228       0.00000000
Te       3.27088790       3.25334956       0.01017658      -0.00717556       0.07182014       0.00129381       0.00000000
Pb       6.54779860       6.53553932       3.26918132      -0.01334609       0.02284013      -0.00552716       0.00000000
Te       3.27594980      -0.00261356       3.26846931      -0.01439799       0.01387938      -0.00151305       0.00000000
Pb       6.52726120       3.27644261       6.54303242       0.00557088      -0.02597444       0.01862568       0.00000000
Te       6.54453821       3.25563156       3.28740380      -0.01776233       0.02497761      -0.05405169       0.00000000
Pb       9.81423377       6.53792221       6.56208433      -0.01156578       0.02226967      -0.04286961       0.00000000
Te      -0.00045386       3.25639002       3.26684453       0.00490202       0.02074615       0.03085666       0.00000000
Pb       3.24801365       6.55228758       6.53762887       0.04268614      -0.03205534       0.01763266       0.00000000
Te       3.26347127       6.55251831       3.25438605       0.03386720      -0.04633876       0.04912696       0.00000000
Pb       6.54714790       9.79204627       6.53517202      -0.01624432       0.03316033      -0.00247954       0.00000000
Te       3.25885461       3.28551656       6.55945522       0.03715322      -0.06674847      -0.03593158       0.00000000
Pb       6.53849947       6.55020094       9.81089055       0.00225253      -0.04575347      -0.00171091       0.00000000
Te       6.54747423       6.53426524       6.52471022       0.00275320       0.00431696       0.04689221       0.00000000
Pb       9.79465943       9.81652163       9.83516637       0.04706323      -0.00358417      -0.03301942       0.00000000
16
Lattice="0.0 6.5417936101197425 6.5417936101197425 6.5417936101197425 0.0 6.5417936101197425 6.5417936101197425 6.5417936101197425 0.0" Properties=species:S:1:pos:R:3:forces:R:3:magmoms:R:1 energy=-60.16794454 stress="-0.00294806485669573 5.42558784540217e-06 1.0521255759919275e-05 5.42558784540217e-06 -0.0029559259375756338 4.518890056194234e-06 1.0521255759919275e-05 4.518890056194234e-06 -0.002959976595858713" dipole="_JSON [[0.0, 0.0, 0.0]]" magmom=0.0 free_energy=-60.15959363 pbc="T T T"
Te       0.00091205       0.01091283      -0.01946970       0.01100975      -0.02605287       0.05656761       0.00000000
Pb       3.25703331       3.24793189       3.29499515       0.02951395       0.06675991      -0.04168703       0.00000000
Te       3.28817517       3.29294237       0.00794828      -0.04515474      -0.07941805      -0.01534902       0.00000000
Pb       6.55155782       6.52995934       3.29006044      -0.04508892      -0.00451957      -0.06050016       0.00000000
Te       3.25966354      -0.00664035       3.26711322       0.05218300       0.01891231      -0.00067339       0.00000000
Pb       6.53387746       3.27949229       6.53948572       0.03187725      -0.03956118      -0.00054713       0.00000000
Te       6.54113700       3.26881044       3.28436549      -0.01522855      -0.00678937      -0.04126056       0.00000000
Pb       9.80662089       6.54005113       6.54603412       0.04543958      -0.00481803       0.01946243       0.00000000
Te      -0.01645990       3.26606140       3.27625149       0.05097627       0.00731986      -0.00772614       0.00000000
Pb       3.28255821       6.54341044       6.53506527      -0.04955831       0.01175521      -0.01020157       0.00000000
Te       3.28532205       6.53957880       3.27120945      -0.05391709      -0.00225828      -0.00620608       0.00000000
Pb       6.54361291       9.81206113       6.53637793      -0.01327959       0.03667052       0.02986319       0.00000000
Te       3.27564199       3.25925089       6.53678452       0.00120373       0.06481921       0.03584356       0.00000000
Pb       6.53770800       6.53245013       9.81353552       0.03899407       0.01464838       0.03229784       0.00000000
Te       6.54323052       6.54254910       6.54023716      -0.00077257       0.01649316      -0.00698376       0.00000000
Pb       9.81819892       9.82971071       9.82275135      -0.03819784      -0.07396121       0.01710020       0.00000000
16
Lattice="0.0 6.5417936101197425 6.5417936101197425 6.5417936101197425 0.0 6.5417936101197425 6.5417936101197425 6.5417936101197425 0.0" Properties=species:S:1:pos:R:3:forces:R:3:magmoms:R:1 energy=-60.16857583 stress="-0.002921476627004343 8.266441931593563e-07 -1.4913212245020423e-06 8.266441931593563e-07 -0.0029347550819036395 -2.928890572411978e-06 -1.4913212245020423e-06 -2.928890572411978e-06 -0.002982164773827662" dipole="_JSON [[0.0, 0.0, 0.0]]" magmom=0.0 free_energy=-60.1602271 pbc="T T T"
Te       0.00001109      -0.00289544      -0.01116066      -0.00052819       0.01840540       0.03130445       0.00000000
Pb       3.27076798       3.26711319       3.26608545      -0.00978280       0.01370139       0.00880924       0.00000000
Te       3.25572349       3.26598809      -0.00240681       0.05908946       0.03039051       0.02409179       0.00000000
Pb       6.53531414       6.54815252       3.28829798       0.03322552      -0.00558932      -0.05615246       0.00000000
Te       3.27386363       0.00707504       3.28912496      -0.00622795       0.02278657      -0.08971402       0.00000000
Pb       6.54610130       3.28632410       6.53278640      -0.01702160      -0.04858162       0.02432190       0.00000000
Te       6.54042236       3.28387260       3.27764952       0.00140521      -0.03302987      -0.02444732       0.00000000
Pb       9.81301000       6.55097507       6.54559870       0.02413216      -0.01308364      -0.03851703       0.00000000
Te       0.00516367       3.26734441       3.27298458      -0.01520329       0.03399396       0.00307913       0.00000000
Pb       3.27418092       6.53681136       6.52087584      -0.03037331       0.01538286       0.04088614       0.00000000
Te       3.27007093       6.56634544       3.24417571       0.00769332      -0.05354407       0.09681162       0.00000000
Pb       6.53266082       9.81041727       6.54448676       0.01547762       0.03766898      -0.01149781       0.00000000
Te       3.28220142       3.28132078       6.55483171      -0.05434316      -0.02192504      -0.04584390       0.00000000
Pb       6.55568762       6.53522908       9.81212784      -0.03834626       0.01189403       0.02992141       0.00000000
Te       6.53679458       6.54615780       6.53803548       0.01104300      -0.00104339       0.00700784       0.00000000
Pb       9.80345980       9.83186292       9.81118739       0.01976027      -0.00742677      -0.00006098       0.00000000
16
Lattice="0.0 6.5417936101197425 6.5417936101197425 6.5417936101197425 0.0 6.5417936101197425 6.5417936101197425 6.5417936101197425 0.0" Properties=species:S:1:pos:R:3:forces:R:3:magmoms:R:1 energy=-60.17046497 stress="-0.0029369440103616325 5.508131803591976e-08 9.432792741947368e-07 5.508131803591976e-08 -0.0029300307650575847 2.1396330189166624e-06 9.432792741947368e-07 2.1396330189166624e-06 -0.0029529625938728467" dipole="_JSON [[0.0, 0.0, 0.0]]" magmom=0.0 free_energy=-60.16211856 pbc="T T T"
Te       0.01331587       0.00715279      -0.01545400      -0.04825528      -0.02395212       0.03464961       0.00000000
Pb       3.27081297       3.27711016       3.26369595       0.00257428      -0.02327589       0.02969559       0.00000000
Te       3.27355192       3.27198229       0.00004291       0.00321728      -0.00239732       0.00572870       0.00000000
Pb       6.54004761       6.54612387       3.28292718       0.00464601       0.00378725      -0.03754136       0.00000000
Te       3.26124615       0.01028274       3.27318311       0.02479762      -0.03320440       0.00128082       0.00000000
Pb       6.54624499       3.25953078       6.54314498      -0.01830099       0.01417133      -0.00076983       0.00000000
Te       6.55663898       3.26009876       3.25111952      -0.02848370       0.05987762       0.05427896       0.00000000
Pb       9.79525669       6.54445431       6.56564328       0.04666505       0.00221181      -0.04136381       0.00000000
Te       0.01123691       3.28762303       3.27188830      -0.01373236      -0.05934561      -0.03102212       0.00000000
Pb       3.28487677       6.53908113       6.54792565      -0.04933048      -0.00346630       0.02497801       0.00000000
Te       3.26822363       6.53630052       3.27222389       0.00578276       0.02938635       0.00219153       0.00000000
Pb       6.53703219       9.82577515       6.54374374       0.01920103      -0.01138931      -0.01095110       0.00000000
Te       3.27489890       3.26752048       6.55435833       0.00070956       0.00934806      -0.04340285       0.00000000
Pb       6.53447392       6.54839593       9.80918170      -0.01048230      -0.00805173       0.02341488       0.00000000
Te       6.53239928       6.53690024       6.53374770       0.04723972       0.02158165      -0.00176560       0.00000000
Pb       9.81056344       9.80929901       9.81581211       0.01375181       0.02471862      -0.00940141       0.00000000
16
Lattice="0.0 6.5417936101197425 6.5417936101197425 6.5417936101197425 0.0 6.5417936101197425 6.5417936101197425 6.5417936101197425 0.0" Properties=species:S:1:pos:R:3:forces:R:3:magmoms:R:1 energy=-60.17085617 stress="-0.002960249842886735 1.5000718202965307e-06 -8.069191518688275e-06 1.5000718202965307e-06 -0.0029060134878732594 -2.272134016150038e-06 -8.069191518688275e-06 -2.272134016150038e-06 -0.0029435600662086506" dipole="_JSON [[0.0, 0.0, 0.0]]" magmom=0.0 free_energy=-60.16251177 pbc="T T T"
Te       0.01749455      -0.00286073      -0.00484565      -0.05745746       0.01306614       0.02520840       0.00000000
Pb       3.24436362       3.27081396       3.26770049       0.04715604      -0.02561881      -0.00428537       0.00000000
Te       3.26553051       3.27405083       0.00421051       0.02355094       0.01640830      -0.03656867       0.00000000
Pb       6.53113758       6.53293121       3.26613947       0.04693680      -0.00592509      -0.00456609       0.00000000
Te       3.27779363       0.00561192       3.25784132      -0.01706698      -0.02451789       0.04234893       0.00000000
Pb       6.53059886       3.27826518       6.55753995       0.01517937      -0.01835398      -0.03291808       0.00000000
Te       6.54148286       3.26406234       3.28185310       0.00789796       0.02239017      -0.01964697       0.00000000
Pb       9.80959465       6.54905113       6.55728433       0.00795421      -0.01314368      -0.05871338       0.00000000
Te       0.00630080       3.27163174       3.27821952      -0.03483565      -0.01846754      -0.00249873       0.00000000
Pb       3.26447105       6.54001268       6.53605406       0.00448301       0.02246475       0.03935378       0.00000000
Te       3.26885305       6.53692866       3.26903905       0.02919695       0.02950065      -0.01327675       0.00000000
Pb       6.53798825       9.81358019       6.54243033      -0.01639137       0.00916395       0.03082378       0.00000000
Te       3.27386028       3.28492452       6.52632498      -0.01280122      -0.04167771       0.05390945       0.00000000
Pb       6.55474980       6.53942111       9.80036695      -0.05779658       0.01084160       0.02704607       0.00000000
Te       6.54006941       6.54271199       6.55246919       0.03383030       0.00108728      -0.04849097       0.00000000
Pb       9.80207407       9.81486390       9.81386861      -0.01983631       0.02278185       0.00227462       0.00000000
16
Lattice="0.0 6.5417936101197425 6.5417936101197425 6.5417936101197425 0.0 6.5417936101197425 6.5417936101197425 6.5417936101197425 0.0" Properties=species:S:1:pos:R:3:forces:R:3:magmoms:R:1 energy=-60.1694787 stress="-0.002950583130865768 2.551953353281636e-06 5.751650523647437e-06 2.551953353281636e-06 -0.0029439832904594584 5.411332238558652e-06 5.751650523647437e-06 5.411332238558652e-06 -0.002941794486831648" dipole="_JSON [[0.0, 0.0, 0.0]]" magmom=0.0 free_energy=-60.16113273 pbc="T T T"
Te       0.00472986      -0.00681426       0.00242439      -0.00178800       0.01922235      -0.01333417       0.00000000
Pb       3.25388945       3.27842823       3.25554959       0.01463971      -0.00702144       0.04216787       0.00000000
Te       3.27094808       3.26969453      -0.00806982      -0.01294638      -0.01892292       0.03229284       0.00000000
Pb       6.57051180       6.53581538       3.27562137      -0.05487651       0.00326639      -0.00803247       0.00000000
Te       3.28185637      -0.01215169       3.28432037      -0.02535663       0.03419536      -0.04185724       0.00000000
Pb       6.54057211       3.28102196       6.53265492      -0.01448224      -0.01749834       0.01072285       0.00000000
Te       6.53149831       3.28299477       3.27591553       0.00398137      -0.07276075      -0.03887797       0.00000000
Pb       9.81407888       6.54820122       6.54706694      -0.00706045      -0.01847347       0.00385359       0.00000000
Te      -0.01154360       3.24876347       3.25407924       0.01610152       0.07093383       0.04818982       0.00000000
Pb       3.25301586       6.51960826       6.53531930       0.03466260       0.02899539       0.00983066       0.00000000
Te       3.26561276       6.54140152       3.27304656       0.02830925      -0.01964498       0.01070624       0.00000000
Pb       6.53795002       9.81015137       6.54252613       0.00551469       0.00845022      -0.00955773       0.00000000
Te       3.26092477       3.26375824       6.54214777       0.02609864       0.01249070      -0.01169004       0.00000000
Pb       6.53501416       6.53607480       9.81163179       0.03947293       0.00354112       0.00332576       0.00000000
Te       6.55515192       6.54498026       6.53841766      -0.04155163      -0.01924710       0.01794441       0.00000000
Pb       9.80683773       9.81154122       9.83510859      -0.01071887      -0.00752637      -0.05568439       0.00000000
16
Lattice="0.0 6.5417936101197425 6.5417936101197425 6.5417936101197425 0.0 6.5417936101197425 6.5417936101197425 6.5417936101197425 0.0" Properties=species:S:1:pos:R:3:forces:R:3:magmoms:R:1 energy=-60.16912488 stress="-0.0029224606633331297 1.2890027061865365e-06 4.648869483740753e-06 1.2890027061865365e-06 -0.002952913073739442 1.2894146457888447e-06 4.648869483740753e-06 1.2894146457888447e-06 -0.002993377488934583" dipole="_JSON [[0.0, 0.0, 0.0]]" magmom=0.0 free_energy=-60.16078384 pbc="T T T"
Te      -0.00712391       0.00753766      -0.00044503       0.03488905      -0.02604769       0.02189675       0.00000000
Pb       3.27541493       3.28434782       3.27622018      -0.00351099      -0.04435004      -0.00138824       0.00000000
Te       3.28439868       3.27950892       0.01478686      -0.03277628      -0.03680302      -0.05103660       0.00000000
Pb       6.53133984       6.53390372       3.25828075       0.04468989       0.00619709       0.05559079       0.00000000
Te       3.27652527      -0.00243326       3.28003421      -0.01572608       0.03002184      -0.04516672       0.00000000
Pb       6.54496712       3.27216984       6.56329744      -0.00599321       0.02644502      -0.04291487       0.00000000
Te       6.54785650       3.27062909       3.26105520      -0.01249785       0.00679559       0.01991300       0.00000000
Pb       9.82459747       6.55132192       6.53092179      -0.05044540      -0.00426689      -0.01842353       0.00000000
Te      -0.00145211       3.27327538       3.25450587       0.01993540      -0.01094167       0.05365381       0.00000000
Pb       3.26811546       6.55578599       6.52564253       0.03188990      -0.01826241       0.04118040       0.00000000
Te       3.27580552       6.56072103       3.26468701      -0.00701697      -0.05886434       0.02895550       0.00000000
Pb       6.53725609       9.81486493       6.54693690       0.02004945      -0.02489789       0.00288022       0.00000000
Te       3.27486922       3.25576835       6.53415327       0.00321883       0.07188468       0.03602341       0.00000000
Pb       6.54280631       6.53862095       9.82407375      -0.02995852       0.00386163      -0.04415906       0.00000000
Te       6.53857237       6.53809245       6.56028974       0.00289995       0.02154435      -0.05890562       0.00000000
Pb       9.81187390       9.80288767       9.81266652       0.00035283       0.05768374       0.00190075       0.00000000
16