<?xml version="1.0" encoding="ISO-8859-1"?>
<modeling>
 <generator>
  <i name="program" type="string">vasp </i>
  <i name="version" type="string">6.3.0  </i>
  <i name="subversion" type="string">20Jan22 (build Feb 21 2022 11:18:28) complex                          parallel </i>
  <i name="platform" type="string">CrayXC_GCC_OMP </i>
  <i name="date" type="string">2023 10 05 </i>
  <i name="time" type="string">13:01:01 </i>
 </generator>
 <incar>
  <i type="int" name="ISTART">     1</i>
  <i type="string" name="PREC">Accurate  (Precision level)</i>
  <i type="string" name="ALGO">FAST      (SCF minimisation algorithm</i>
  <i type="logical" name="ADDGRID"> T  </i>
  <i type="int" name="ISPIN">     1</i>
  <i type="int" name="INIWAV">     1</i>
  <i type="int" name="NELM">   500</i>
  <i type="int" name="NELMIN">     5</i>
  <i type="int" name="IBRION">     2</i>
  <i name="EDIFF">      0.00000001</i>
  <i name="EDIFFG">     -0.00000010</i>
  <i type="int" name="NSW">   100</i>
  <i type="int" name="ISIF">     2</i>
  <i type="int" name="ISYM">     2</i>
  <i type="int" name="NBLOCK">     1</i>
  <i name="ENMAX">    600.00000000</i>
  <i type="int" name="NEDOS">  1000</i>
  <i type="logical" name="LREAL"> F  </i>
  <i type="logical" name="LPLANE"> T  </i>
  <i type="int" name="ISMEAR">     0</i>
  <i name="SIGMA">      0.01000000</i>
  <i type="int" name="NWRITE">     2</i>
  <i type="int" name="LMAXMIX">     4</i>
  <i type="int" name="LORBIT">    11</i>
  <i type="int" name="ICORELEVEL">     1</i>
  <i type="string" name="GGA">PS     (PBEsol exchange-correlation)</i>
 </incar>
 <primitive_cell>
  <structure name="primitive_cell" >
   <crystal>
    <varray name="basis" >
     <v>       0.00000000       5.43581180       5.43581180 </v>
     <v>       5.43581180       0.00000000       5.43581180 </v>
     <v>       5.43581180       5.43581180       0.00000000 </v>
    </varray>
    <i name="volume">    321.23527682 </i>
    <varray name="rec_basis" >
     <v>      -0.09198258       0.09198258       0.09198258 </v>
     <v>       0.09198258      -0.09198258       0.09198258 </v>
     <v>       0.09198258       0.09198258      -0.09198258 </v>
    </varray>
   </crystal>
   <varray name="positions" >
    <v>       0.12440572       0.12455931       0.12470588 </v>
    <v>       0.62507812       0.12509577       0.12404730 </v>
    <v>       0.12525397       0.62504246       0.12445699 </v>
    <v>       0.62431623       0.62556427       0.12554969 </v>
    <v>       0.12515869       0.12413735       0.62412231 </v>
    <v>       0.62482786       0.12525749       0.62447357 </v>
    <v>       0.12479720       0.62459234       0.62471179 </v>
    <v>       0.62461423       0.62439152       0.62454330 </v>
    <v>       0.00014719       0.99910474       0.99954696 </v>
    <v>       0.50051615       0.00023080       0.99935645 </v>
    <v>       0.00046037       0.49961852       0.99965531 </v>
    <v>       0.49954610       0.49934237       0.00034380 </v>
    <v>       0.00007471       0.99958604       0.49983229 </v>
    <v>       0.49963494       0.00052186       0.49922311 </v>
    <v>       0.00042169       0.50052960       0.49923111 </v>
    <v>       0.50020306       0.50036419       0.49913624 </v>
   </varray>
  </structure>
  <varray name="primitive_index" >
   <v type="int" >        1 </v>
   <v type="int" >        2 </v>
   <v type="int" >        3 </v>
   <v type="int" >        4 </v>
   <v type="int" >        5 </v>
   <v type="int" >        6 </v>
   <v type="int" >        7 </v>
   <v type="int" >        8 </v>
   <v type="int" >        9 </v>
   <v type="int" >       10 </v>
   <v type="int" >       11 </v>
   <v type="int" >       12 </v>
   <v type="int" >       13 </v>
   <v type="int" >       14 </v>
   <v type="int" >       15 </v>
   <v type="int" >       16 </v>
  </varray>
 </primitive_cell>
 <kpoints>
  <generation param="Gamma">
   <v type="int" name="divisions">       6        6        6 </v>
   <v name="usershift">      0.00000000       0.00000000       0.00000000 </v>
   <v name="genvec1">      0.16666667       0.00000000      -0.00000000 </v>
   <v name="genvec2">      0.00000000       0.16666667       0.00000000 </v>
   <v name="genvec3">     -0.00000000      -0.00000000       0.16666667 </v>
   <v name="shift">      0.00000000       0.00000000       0.00000000 </v>
  </generation>
  <varray name="kpointlist" >
   <v>       0.00000000       0.00000000       0.00000000 </v>
   <v>       0.16666667       0.00000000       0.00000000 </v>
   <v>       0.00000000       0.16666667       0.00000000 </v>
   <v>       0.00000000       0.00000000       0.16666667 </v>
   <v>       0.16666667       0.16666667       0.16666667 </v>
   <v>       0.33333333       0.00000000       0.00000000 </v>
   <v>       0.00000000       0.33333333       0.00000000 </v>
   <v>       0.00000000       0.00000000       0.33333333 </v>
   <v>       0.33333333       0.33333333       0.33333333 </v>
   <v>       0.50000000       0.00000000       0.00000000 </v>
   <v>       0.00000000       0.50000000       0.00000000 </v>
   <v>       0.00000000       0.00000000       0.50000000 </v>
   <v>       0.50000000       0.50000000       0.50000000 </v>
   <v>       0.16666667       0.16666667       0.00000000 </v>
   <v>       0.00000000       0.16666667       0.16666667 </v>
   <v>       0.16666667       0.00000000       0.16666667 </v>
   <v>       0.33333333       0.16666667       0.00000000 </v>
   <v>       0.00000000       0.33333333       0.16666667 </v>
   <v>       0.16666667       0.00000000       0.33333333 </v>
   <v>       0.16666667       0.16666667      -0.16666667 </v>
   <v>       0.33333333       0.16666667       0.33333333 </v>
   <v>       0.16666667       0.33333333       0.00000000 </v>
   <v>       0.16666667      -0.16666667      -0.16666667 </v>
   <v>       0.33333333       0.33333333       0.16666667 </v>
   <v>       0.00000000       0.16666667       0.33333333 </v>
   <v>      -0.16666667       0.16666667      -0.16666667 </v>
   <v>       0.16666667       0.33333333       0.33333333 </v>
   <v>       0.33333333       0.00000000       0.16666667 </v>
   <v>       0.50000000       0.16666667       0.00000000 </v>
   <v>       0.00000000       0.50000000       0.16666667 </v>
   <v>       0.16666667       0.00000000       0.50000000 </v>
   <v>       0.16666667       0.16666667      -0.33333333 </v>
   <v>       0.50000000       0.33333333       0.50000000 </v>
   <v>       0.16666667       0.50000000       0.00000000 </v>
   <v>       0.33333333      -0.16666667      -0.16666667 </v>
   <v>       0.50000000       0.50000000       0.33333333 </v>
   <v>       0.00000000       0.16666667       0.50000000 </v>
   <v>      -0.16666667       0.33333333      -0.16666667 </v>
   <v>       0.33333333       0.50000000       0.50000000 </v>
   <v>       0.50000000       0.00000000       0.16666667 </v>
   <v>      -0.33333333       0.16666667       0.00000000 </v>
   <v>       0.00000000      -0.33333333       0.16666667 </v>
   <v>       0.16666667       0.00000000      -0.33333333 </v>
   <v>       0.16666667       0.16666667       0.50000000 </v>
   <v>      -0.33333333       0.50000000      -0.33333333 </v>
   <v>       0.16666667      -0.33333333       0.00000000 </v>
   <v>       0.50000000      -0.16666667      -0.16666667 </v>
   <v>      -0.33333333      -0.33333333       0.50000000 </v>
   <v>       0.00000000       0.16666667      -0.33333333 </v>
   <v>      -0.16666667       0.50000000      -0.16666667 </v>
   <v>       0.50000000      -0.33333333      -0.33333333 </v>
   <v>      -0.33333333       0.00000000       0.16666667 </v>
   <v>      -0.16666667       0.16666667       0.00000000 </v>
   <v>       0.00000000      -0.16666667       0.16666667 </v>
   <v>       0.16666667       0.00000000      -0.16666667 </v>
   <v>       0.16666667       0.16666667       0.33333333 </v>
   <v>      -0.16666667      -0.33333333      -0.16666667 </v>
   <v>      -0.33333333      -0.16666667      -0.16666667 </v>
   <v>       0.33333333       0.33333333       0.00000000 </v>
   <v>       0.00000000       0.33333333       0.33333333 </v>
   <v>       0.33333333       0.00000000       0.33333333 </v>
   <v>       0.50000000       0.33333333       0.00000000 </v>
   <v>       0.00000000       0.50000000       0.33333333 </v>
   <v>       0.33333333       0.00000000       0.50000000 </v>
   <v>       0.33333333       0.33333333      -0.16666667 </v>
   <v>       0.50000000       0.16666667       0.50000000 </v>
   <v>       0.33333333       0.50000000       0.00000000 </v>
   <v>       0.16666667      -0.33333333      -0.33333333 </v>
   <v>       0.50000000       0.50000000       0.16666667 </v>
   <v>       0.00000000       0.33333333       0.50000000 </v>
   <v>      -0.33333333       0.16666667      -0.33333333 </v>
   <v>       0.16666667       0.50000000       0.50000000 </v>
   <v>       0.50000000       0.00000000       0.33333333 </v>
   <v>      -0.33333333       0.33333333       0.00000000 </v>
   <v>       0.00000000      -0.33333333       0.33333333 </v>
   <v>       0.33333333       0.00000000      -0.33333333 </v>
   <v>       0.33333333       0.33333333      -0.33333333 </v>
   <v>      -0.33333333       0.33333333      -0.33333333 </v>
   <v>       0.33333333      -0.33333333      -0.33333333 </v>
   <v>       0.50000000       0.50000000       0.00000000 </v>
   <v>       0.00000000       0.50000000       0.50000000 </v>
   <v>       0.50000000       0.00000000       0.50000000 </v>
   <v>       0.50000000       0.33333333       0.16666667 </v>
   <v>       0.16666667       0.50000000       0.33333333 </v>
   <v>       0.33333333       0.16666667       0.50000000 </v>
   <v>       0.33333333       0.16666667      -0.16666667 </v>
   <v>       0.50000000       0.16666667       0.33333333 </v>
   <v>       0.16666667      -0.33333333      -0.16666667 </v>
   <v>       0.16666667       0.33333333      -0.16666667 </v>
   <v>       0.16666667      -0.16666667      -0.33333333 </v>
   <v>       0.33333333       0.50000000       0.16666667 </v>
   <v>      -0.16666667       0.16666667      -0.33333333 </v>
   <v>      -0.33333333       0.16666667      -0.16666667 </v>
   <v>       0.16666667       0.33333333       0.50000000 </v>
   <v>      -0.33333333       0.33333333       0.16666667 </v>
   <v>       0.16666667      -0.33333333       0.33333333 </v>
   <v>       0.33333333       0.16666667      -0.33333333 </v>
   <v>      -0.33333333       0.33333333       0.50000000 </v>
   <v>       0.16666667       0.50000000      -0.16666667 </v>
   <v>       0.33333333      -0.16666667      -0.33333333 </v>
   <v>       0.50000000      -0.33333333       0.33333333 </v>
   <v>      -0.16666667       0.16666667       0.50000000 </v>
   <v>      -0.33333333       0.33333333      -0.16666667 </v>
   <v>       0.33333333       0.50000000      -0.33333333 </v>
   <v>       0.50000000      -0.16666667       0.16666667 </v>
   <v>      -0.16666667      -0.33333333       0.33333333 </v>
   <v>      -0.33333333       0.50000000       0.16666667 </v>
   <v>       0.16666667      -0.33333333       0.50000000 </v>
   <v>       0.50000000       0.16666667      -0.33333333 </v>
   <v>       0.50000000       0.33333333      -0.16666667 </v>
   <v>      -0.33333333       0.16666667       0.50000000 </v>
   <v>       0.16666667       0.50000000      -0.33333333 </v>
  </varray>
  <varray name="weights" >
   <v>       0.00462963 </v>
   <v>       0.00925926 </v>
   <v>       0.00925926 </v>
   <v>       0.00925926 </v>
   <v>       0.00925926 </v>
   <v>       0.00925926 </v>
   <v>       0.00925926 </v>
   <v>       0.00925926 </v>
   <v>       0.00925926 </v>
   <v>       0.00462963 </v>
   <v>       0.00462963 </v>
   <v>       0.00462963 </v>
   <v>       0.00462963 </v>
   <v>       0.00925926 </v>
   <v>       0.00925926 </v>
   <v>       0.00925926 </v>
   <v>       0.00925926 </v>
   <v>       0.00925926 </v>
   <v>       0.00925926 </v>
   <v>       0.00925926 </v>
   <v>       0.00925926 </v>
   <v>       0.00925926 </v>
   <v>       0.00925926 </v>
   <v>       0.00925926 </v>
   <v>       0.00925926 </v>
   <v>       0.00925926 </v>
   <v>       0.00925926 </v>
   <v>       0.00925926 </v>
   <v>       0.00925926 </v>
   <v>       0.00925926 </v>
   <v>       0.00925926 </v>
   <v>       0.00925926 </v>
   <v>       0.00925926 </v>
   <v>       0.00925926 </v>
   <v>       0.00925926 </v>
   <v>       0.00925926 </v>
   <v>       0.00925926 </v>
   <v>       0.00925926 </v>
   <v>       0.00925926 </v>
   <v>       0.00925926 </v>
   <v>       0.00925926 </v>
   <v>       0.00925926 </v>
   <v>       0.00925926 </v>
   <v>       0.00925926 </v>
   <v>       0.00925926 </v>
   <v>       0.00925926 </v>
   <v>       0.00925926 </v>
   <v>       0.00925926 </v>
   <v>       0.00925926 </v>
   <v>       0.00925926 </v>
   <v>       0.00925926 </v>
   <v>       0.00925926 </v>
   <v>       0.00925926 </v>
   <v>       0.00925926 </v>
   <v>       0.00925926 </v>
   <v>       0.00925926 </v>
   <v>       0.00925926 </v>
   <v>       0.00925926 </v>
   <v>       0.00925926 </v>
   <v>       0.00925926 </v>
   <v>       0.00925926 </v>
   <v>       0.00925926 </v>
   <v>       0.00925926 </v>
   <v>       0.00925926 </v>
   <v>       0.00925926 </v>
   <v>       0.00925926 </v>
   <v>       0.00925926 </v>
   <v>       0.00925926 </v>
   <v>       0.00925926 </v>
   <v>       0.00925926 </v>
   <v>       0.00925926 </v>
   <v>       0.00925926 </v>
   <v>       0.00925926 </v>
   <v>       0.00925926 </v>
   <v>       0.00925926 </v>
   <v>       0.00925926 </v>
   <v>       0.00925926 </v>
   <v>       0.00925926 </v>
   <v>       0.00925926 </v>
   <v>       0.00462963 </v>
   <v>       0.00462963 </v>
   <v>       0.00462963 </v>
   <v>       0.00925926 </v>
   <v>       0.00925926 </v>
   <v>       0.00925926 </v>
   <v>       0.00925926 </v>
   <v>       0.00925926 </v>
   <v>       0.00925926 </v>
   <v>       0.00925926 </v>
   <v>       0.00925926 </v>
   <v>       0.00925926 </v>
   <v>       0.00925926 </v>
   <v>       0.00925926 </v>
   <v>       0.00925926 </v>
   <v>       0.00925926 </v>
   <v>       0.00925926 </v>
   <v>       0.00925926 </v>
   <v>       0.00925926 </v>
   <v>       0.00925926 </v>
   <v>       0.00925926 </v>
   <v>       0.00925926 </v>
   <v>       0.00925926 </v>
   <v>       0.00925926 </v>
   <v>       0.00925926 </v>
   <v>       0.00925926 </v>
   <v>       0.00925926 </v>
   <v>       0.00925926 </v>
   <v>       0.00925926 </v>
   <v>       0.00925926 </v>
   <v>       0.00925926 </v>
   <v>       0.00925926 </v>
   <v>       0.00925926 </v>
  </varray>
 </kpoints>
 <parameters>
  <separator name="general" >
   <i type="string" name="SYSTEM">unknown system</i>
   <i type="logical" name="LCOMPAT"> F  </i>
  </separator>
  <separator name="electronic" >
   <i type="string" name="PREC">accura</i>
   <i name="ENMAX">    600.00000000</i>
   <i name="ENAUG">    322.06900000</i>
   <i name="EDIFF">      0.00000001</i>
   <i type="int" name="IALGO">    68</i>
   <i type="int" name="IWAVPR">    11</i>
   <i type="int" name="NBANDS">    48</i>
   <i type="int" name="NBANDSLOW">    -1</i>
   <i type="int" name="NBANDSHIGH">    -1</i>
   <i name="NELECT">     64.00000000</i>
   <i type="int" name="TURBO">     0</i>
   <i type="int" name="IRESTART">     0</i>
   <i type="int" name="NREBOOT">     0</i>
   <i type="int" name="NMIN">     0</i>
   <i name="EREF">      0.00000000</i>
   <separator name="electronic smearing" >
    <i type="int" name="ISMEAR">     0</i>
    <i name="SIGMA">      0.01000000</i>
    <i name="KSPACING">      0.50000000</i>
    <i type="logical" name="KGAMMA"> T  </i>
    <i type="logical" name="KBLOWUP"> T  </i>
   </separator>
   <separator name="electronic projectors" >
    <i type="logical" name="LREAL"> F  </i>
    <v name="ROPT">      0.00000000</v>
    <i type="int" name="LMAXPAW">  -100</i>
    <i type="int" name="LMAXMIX">     4</i>
    <i type="logical" name="NLSPLINE"> F  </i>
   </separator>
   <separator name="electronic startup" >
    <i type="int" name="ISTART">     0</i>
    <i type="int" name="ICHARG">     2</i>
    <i type="int" name="INIWAV">     1</i>
   </separator>
   <separator name="electronic spin" >
    <i type="int" name="ISPIN">     1</i>
    <i type="logical" name="LNONCOLLINEAR"> F  </i>
    <v name="MAGMOM">      1.00000000      1.00000000      1.00000000      1.00000000      1.00000000      1.00000000      1.00000000      1.00000000      1.00000000      1.00000000      1.00000000      1.00000000      1.00000000      1.00000000      1.00000000      1.00000000</v>
    <i name="NUPDOWN">     -1.00000000</i>
    <i type="logical" name="LSORBIT"> F  </i>
    <v name="SAXIS">      0.00000000      0.00000000      1.00000000</v>
    <i type="logical" name="LSPIRAL"> F  </i>
    <v name="QSPIRAL">      0.00000000      0.00000000      0.00000000</v>
    <i type="logical" name="LZEROZ"> F  </i>
   </separator>
   <separator name="electronic exchange-correlation" >
    <i type="logical" name="LASPH"> F  </i>
    <i type="logical" name="LMETAGGA"> F  </i>
   </separator>
   <separator name="electronic convergence" >
    <i type="int" name="NELM">   500</i>
    <i type="int" name="NELMDL">     0</i>
    <i type="int" name="NELMIN">     5</i>
    <i name="ENINI">    600.00000000</i>
    <separator name="electronic convergence detail" >
     <i type="logical" name="LDIAG"> T  </i>
     <i type="logical" name="LSUBROT"> F  </i>
     <i name="WEIMIN">      0.00100000</i>
     <i name="EBREAK">      0.00000000</i>
     <i name="DEPER">      0.30000000</i>
     <i type="int" name="NRMM">     4</i>
     <i name="TIME">      0.40000000</i>
    </separator>
   </separator>
   <separator name="electronic mixer" >
    <i name="AMIX">      0.40000000</i>
    <i name="BMIX">      1.00000000</i>
    <i name="AMIN">      0.10000000</i>
    <i name="AMIX_MAG">      1.60000000</i>
    <i name="BMIX_MAG">      1.00000000</i>
    <separator name="electronic mixer details" >
     <i type="int" name="IMIX">     4</i>
     <i type="logical" name="MIXFIRST"> F  </i>
     <i type="int" name="MAXMIX">   -45</i>
     <i name="WC">    100.00000000</i>
     <i type="int" name="INIMIX">     1</i>
     <i type="int" name="MIXPRE">     1</i>
     <i type="int" name="MREMOVE">     5</i>
    </separator>
   </separator>
   <separator name="electronic dipolcorrection" >
    <i type="logical" name="LDIPOL"> F  </i>
    <i type="logical" name="LMONO"> F  </i>
    <i type="int" name="IDIPOL">     0</i>
    <i name="EPSILON">      1.00000000</i>
    <v name="DIPOL">   -100.00000000   -100.00000000   -100.00000000</v>
    <i name="EFIELD">      0.00000000</i>
   </separator>
  </separator>
  <separator name="grids" >
   <i type="int" name="NGX">    64</i>
   <i type="int" name="NGY">    64</i>
   <i type="int" name="NGZ">    64</i>
   <i type="int" name="NGXF">   128</i>
   <i type="int" name="NGYF">   128</i>
   <i type="int" name="NGZF">   128</i>
   <i type="logical" name="ADDGRID"> T  </i>
  </separator>
  <separator name="ionic" >
   <i type="int" name="NSW">   100</i>
   <i type="int" name="IBRION">     2</i>
   <i type="int" name="MDALGO">     0</i>
   <i type="int" name="ISIF">     2</i>
   <i name="PSTRESS">      0.00000000</i>
   <i name="EDIFFG">     -0.00000010</i>
   <i type="int" name="NFREE">     1</i>
   <i name="POTIM">      0.50000000</i>
   <i name="SMASS">     -3.00000000</i>
   <i name="SCALEE">      1.00000000</i>
  </separator>
  <separator name="ionic md" >
   <i name="TEBEG">      0.00010000</i>
   <i name="TEEND">      0.00010000</i>
   <i type="int" name="NBLOCK">     1</i>
   <i type="int" name="KBLOCK">   100</i>
   <i type="int" name="NPACO">   256</i>
   <i name="APACO">     10.00000000</i>
  </separator>
  <separator name="symmetry" >
   <i type="int" name="ISYM">     2</i>
   <i name="SYMPREC">      0.00001000</i>
  </separator>
  <separator name="dos" >
   <i type="int" name="LORBIT">    11</i>
   <v name="RWIGS">     -1.00000000</v>
   <i type="int" name="NEDOS">  1000</i>
   <i name="EMIN">     10.00000000</i>
   <i name="EMAX">    -10.00000000</i>
   <i name="EFERMI">      0.00000000</i>
  </separator>
  <separator name="writing" >
   <i type="int" name="NWRITE">     2</i>
   <i type="logical" name="LWAVE"> T  </i>
   <i type="logical" name="LDOWNSAMPLE"> F  </i>
   <i type="logical" name="LCHARG"> T  </i>
   <i type="logical" name="LPARD"> F  </i>
   <i type="logical" name="LVTOT"> F  </i>
   <i type="logical" name="LVHAR"> F  </i>
   <i type="logical" name="LELF"> F  </i>
   <i type="logical" name="LOPTICS"> F  </i>
   <v name="STM">      0.00000000      0.00000000      0.00000000      0.00000000      0.00000000      0.00000000      0.00000000</v>
  </separator>
  <separator name="performance" >
   <i type="int" name="NPAR">     8</i>
   <i type="int" name="NSIM">     4</i>
   <i type="int" name="NBLK">    -1</i>
   <i type="logical" name="LPLANE"> T  </i>
   <i type="logical" name="LSCALAPACK"> T  </i>
   <i type="logical" name="LSCAAWARE"> F  </i>
   <i type="logical" name="LSCALU"> F  </i>
   <i type="logical" name="LASYNC"> F  </i>
   <i type="logical" name="LORBITALREAL"> F  </i>
  </separator>
  <separator name="miscellaneous" >
   <i type="int" name="IDIOT">     3</i>
   <i type="int" name="PHON_NSTRUCT">    -1</i>
   <i type="logical" name="LMUSIC"> F  </i>
   <v name="POMASS">     28.08500000</v>
   <v name="DARWINR">      0.00000000</v>
   <v name="DARWINV">      1.00000000</v>
   <i type="logical" name="LCORR"> T  </i>
  </separator>
  <i type="logical" name="GGA_COMPAT"> T  </i>
  <i type="logical" name="LBERRY"> F  </i>
  <i type="int" name="ICORELEVEL">     1</i>
  <i type="int" name="CLNT">     1</i>
  <i type="int" name="CLN">     1</i>
  <i type="int" name="CLL">     0</i>
  <i name="CLZ">      0.00000000</i>
  <i type="logical" name="LDAU"> F  </i>
  <i type="int" name="I_CONSTRAINED_M">     0</i>
  <separator name="electronic exchange-correlation" >
   <i type="string" name="GGA">PS</i>
   <i type="int" name="VOSKOWN">     0</i>
   <i type="logical" name="LHFCALC"> F  </i>
   <i type="string" name="PRECFOCK"></i>
   <i type="logical" name="LSYMGRAD"> F  </i>
   <i type="logical" name="LHFONE"> F  </i>
   <i type="logical" name="LRHFCALC"> F  </i>
   <i type="logical" name="LTHOMAS"> F  </i>
   <i type="logical" name="LMODELHF"> F  </i>
   <i type="logical" name="LFOCKACE"> F  </i>
   <i name="ENCUT4O">     -1.00000000</i>
   <i type="int" name="EXXOEP">     0</i>
   <i type="int" name="FOURORBIT">     0</i>
   <i name="AEXX">      0.00000000</i>
   <i name="HFALPHA">      0.00000000</i>
   <i name="MCALPHA">      0.00000000</i>
   <i name="ALDAX">      1.00000000</i>
   <i name="AGGAX">      1.00000000</i>
   <i name="ALDAC">      1.00000000</i>
   <i name="AGGAC">      1.00000000</i>
   <i type="int" name="NKREDX">     1</i>
   <i type="int" name="NKREDY">     1</i>
   <i type="int" name="NKREDZ">     1</i>
   <i type="logical" name="SHIFTRED"> F  </i>
   <i type="logical" name="ODDONLY"> F  </i>
   <i type="logical" name="EVENONLY"> F  </i>
   <i type="int" name="LMAXFOCK">     0</i>
   <i type="int" name="NMAXFOCKAE">     0</i>
   <i type="logical" name="LFOCKAEDFT"> F  </i>
   <i name="HFSCREEN">      0.00000000</i>
   <i name="HFSCREENC">      0.00000000</i>
   <i type="int" name="NBANDSGWLOW">     0</i>
  </separator>
  <separator name="vdW DFT" >
   <i type="logical" name="LUSE_VDW"> F  </i>
   <i name="Zab_VDW">     -0.84910000</i>
   <i name="PARAM1">      0.12340000</i>
   <i name="PARAM2">      1.00000000</i>
   <i name="PARAM3">      0.00000000</i>
  </separator>
  <separator name="model GW" >
   <i type="int" name="MODEL_GW">     0</i>
   <i name="MODEL_EPS0">     12.04632288</i>
   <i name="MODEL_ALPHA">      1.00000000</i>
  </separator>
  <separator name="linear response parameters" >
   <i type="logical" name="LEPSILON"> F  </i>
   <i type="logical" name="LRPA"> F  </i>
   <i type="logical" name="LNABLA"> F  </i>
   <i type="logical" name="LVEL"> F  </i>
   <i name="CSHIFT">      0.10000000</i>
   <i name="OMEGAMAX">     -1.00000000</i>
   <i name="DEG_THRESHOLD">      0.00200000</i>
   <i name="RTIME">     -0.10000000</i>
   <i name="WPLASMAI">      0.00000000</i>
   <v name="DFIELD">      0.00000000      0.00000000      0.00000000</v>
   <v name="WPLASMA">      0.00000000      0.00000000      0.00000000      0.00000000      0.00000000      0.00000000      0.00000000      0.00000000      0.00000000</v>
  </separator>
  <separator name="orbital magnetization" >
   <i type="logical" name="NUCIND"> F  </i>
   <v name="MAGPOS">      0.00000000      0.00000000      0.00000000</v>
   <i type="logical" name="LNICSALL"> T  </i>
   <i type="logical" name="ORBITALMAG"> F  </i>
   <i type="logical" name="LMAGBLOCH"> F  </i>
   <i type="logical" name="LCHIMAG"> F  </i>
   <i type="logical" name="LGAUGE"> T  </i>
   <i type="int" name="MAGATOM">     0</i>
   <v name="MAGDIPOL">      0.00000000      0.00000000      0.00000000</v>
   <v name="AVECCONST">      0.00000000      0.00000000      0.00000000</v>
  </separator>
  <separator name="response functions" >
   <i type="logical" name="LFINITE_TEMPERATURE"> F  </i>
   <i type="logical" name="LADDER"> F  </i>
   <i type="logical" name="LRPAFORCE"> F  </i>
   <i type="logical" name="LFXC"> F  </i>
   <i type="logical" name="LHARTREE"> T  </i>
   <i type="int" name="IBSE">     0</i>
   <v type="int" name="KPOINT">    -1     0     0     0</v>
   <i type="logical" name="LTCTC"> F  </i>
   <i type="logical" name="LTCTE"> F  </i>
   <i type="logical" name="LTETE"> F  </i>
   <i type="logical" name="LTRIPLET"> F  </i>
   <i type="logical" name="LFXCEPS"> F  </i>
   <i type="logical" name="LFXHEG"> F  </i>
   <i type="int" name="NATURALO">     2</i>
   <i type="logical" name="LHOLEGF"> F  </i>
   <i type="logical" name="L2ORDER"> F  </i>
   <i type="logical" name="LDMP1"> F  </i>
   <i type="logical" name="LMP2LT"> F  </i>
   <i type="logical" name="LSMP2LT"> F  </i>
   <i type="logical" name="LGWLF"> F  </i>
   <i name="ENCUTGW">     -2.00000000</i>
   <i name="ENCUTGWSOFT">     -2.00000000</i>
   <i name="ENCUTLF">     -1.00000000</i>
   <i type="logical" name="LESF_SPLINES"> F  </i>
   <i type="int" name="LMAXMP2">    -1</i>
   <i name="SCISSOR">      0.00000000</i>
   <i type="int" name="NOMEGA">     0</i>
   <i type="int" name="NOMEGAR">     0</i>
   <i type="int" name="NBANDSGW">    -1</i>
   <i type="int" name="NBANDSO">    -1</i>
   <i type="int" name="NBANDSV">    -1</i>
   <i type="int" name="NELMGW">     1</i>
   <i type="int" name="NELMHF">     1</i>
   <i type="int" name="DIM">     3</i>
   <i type="int" name="IESPILON">     4</i>
   <i type="int" name="ANTIRES">     0</i>
   <i name="OMEGAMAX">    -30.00000000</i>
   <i name="OMEGAMIN">    -30.00000000</i>
   <i name="OMEGATL">   -200.00000000</i>
   <i type="int" name="OMEGAGRID">     0</i>
   <i name="CSHIFT">     -0.10000000</i>
   <i type="logical" name="LSELFENERGY"> F  </i>
   <i type="logical" name="LSPECTRAL"> F  </i>
   <i type="logical" name="LSPECTRALGW"> F  </i>
   <i type="logical" name="LSINGLES"> F  </i>
   <i type="logical" name="LFERMIGW"> F  </i>
   <i type="logical" name="ODDONLYGW"> F  </i>
   <i type="logical" name="EVENONLYGW"> F  </i>
   <i type="int" name="NKREDLFX">     1</i>
   <i type="int" name="NKREDLFY">     1</i>
   <i type="int" name="NKREDLFZ">     1</i>
   <i type="int" name="MAXMEM">  2800</i>
   <i type="int" name="TELESCOPE">     0</i>
   <i type="int" name="NTAUPAR">    -1</i>
   <i type="int" name="NOMEGAPAR">    -1</i>
   <i name="DAMP_NEWTON">      0.80000001</i>
   <i name="LAMBDA">      1.00000000</i>
  </separator>
  <separator name="External order field" >
   <i name="OFIELD_KAPPA">      0.00000000</i>
   <v name="OFIELD_K">      0.00000000      0.00000000      0.00000000</v>
   <i name="OFIELD_Q6_NEAR">      0.00000000</i>
   <i name="OFIELD_Q6_FAR">      0.00000000</i>
   <i name="OFIELD_A">      0.00000000</i>
  </separator>
  <separator name="optional k-points parameters" >
   <i type="int" name="KPOINTS_OPT_MODE">     1</i>
   <i type="logical" name="LKPOINTS_OPT"> F  </i>
  </separator>
 </parameters>
 <atominfo>
  <atoms>      16 </atoms>
  <types>       1 </types>
  <array name="atoms" >
   <dimension dim="1">ion</dimension>
   <field type="string">element</field>
   <field type="int">atomtype</field>
   <set>
    <rc><c>Si</c><c>   1</c></rc>
    <rc><c>Si</c><c>   1</c></rc>
    <rc><c>Si</c><c>   1</c></rc>
    <rc><c>Si</c><c>   1</c></rc>
    <rc><c>Si</c><c>   1</c></rc>
    <rc><c>Si</c><c>   1</c></rc>
    <rc><c>Si</c><c>   1</c></rc>
    <rc><c>Si</c><c>   1</c></rc>
    <rc><c>Si</c><c>   1</c></rc>
    <rc><c>Si</c><c>   1</c></rc>
    <rc><c>Si</c><c>   1</c></rc>
    <rc><c>Si</c><c>   1</c></rc>
    <rc><c>Si</c><c>   1</c></rc>
    <rc><c>Si</c><c>   1</c></rc>
    <rc><c>Si</c><c>   1</c></rc>
    <rc><c>Si</c><c>   1</c></rc>
   </set>
  </array>
  <array name="atomtypes" >
   <dimension dim="1">type</dimension>
   <field type="int">atomspertype</field>
   <field type="string">element</field>
   <field>mass</field>
   <field>valence</field>
   <field type="string">pseudopotential</field>
   <set>
    <rc><c>  16</c><c>Si</c><c>     28.08500000</c><c>      4.00000000</c><c>  PAW_PBE Si 05Jan2001                  </c></rc>
   </set>
  </array>
 </atominfo>
 <structure name="initialpos" >
  <crystal>
   <varray name="basis" >
    <v>       0.00000000       5.43581180       5.43581180 </v>
    <v>       5.43581180       0.00000000       5.43581180 </v>
    <v>       5.43581180       5.43581180       0.00000000 </v>
   </varray>
   <i name="volume">    321.23527682 </i>
   <varray name="rec_basis" >
    <v>      -0.09198258       0.09198258       0.09198258 </v>
    <v>       0.09198258      -0.09198258       0.09198258 </v>
    <v>       0.09198258       0.09198258      -0.09198258 </v>
   </varray>
  </crystal>
  <varray name="positions" >
   <v>       0.12440572       0.12455931       0.12470588 </v>
   <v>       0.62507812       0.12509577       0.12404730 </v>
   <v>       0.12525397       0.62504246       0.12445699 </v>
   <v>       0.62431623       0.62556427       0.12554969 </v>
   <v>       0.12515869       0.12413735       0.62412231 </v>
   <v>       0.62482786       0.12525749       0.62447357 </v>
   <v>       0.12479720       0.62459234       0.62471179 </v>
   <v>       0.62461423       0.62439152       0.62454330 </v>
   <v>       0.00014719       0.99910474       0.99954696 </v>
   <v>       0.50051615       0.00023080       0.99935645 </v>
   <v>       0.00046037       0.49961852       0.99965531 </v>
   <v>       0.49954610       0.49934237       0.00034380 </v>
   <v>       0.00007471       0.99958604       0.49983229 </v>
   <v>       0.49963494       0.00052186       0.49922311 </v>
   <v>       0.00042169       0.50052960       0.49923111 </v>
   <v>       0.50020306       0.50036419       0.49913624 </v>
  </varray>
 </structure>
 <calculation>
  <scstep>
   <time name="dav">    4.36    4.37</time>
   <time name="total">    4.46    4.48</time>
   <energy>
    <i name="alphaZ">     26.82694619 </i>
    <i name="ewald">  -1826.53982980 </i>
    <i name="hartreedc">    -88.40146040 </i>
    <i name="XCdc">   -139.73326277 </i>
    <i name="pawpsdc">   1399.65656354 </i>
    <i name="pawaedc">  -1123.04461034 </i>
    <i name="eentropy">     -0.00015513 </i>
    <i name="bandstr">    265.07660019 </i>
    <i name="atom">   1641.21197842 </i>
    <i name="e_fr_energy">    155.05276990 </i>
    <i name="e_wo_entrp">    155.05292503 </i>
    <i name="e_0_energy">    155.05284747 </i>
   </energy>
  </scstep>
  <scstep>
   <time name="dav">    5.00    5.00</time>
   <time name="total">    5.00    5.01</time>
   <energy>
    <i name="e_fr_energy">    -79.79155073 </i>
    <i name="e_wo_entrp">    -79.79155073 </i>
    <i name="e_0_energy">    -79.79155073 </i>
   </energy>
  </scstep>
  <scstep>
   <time name="dav">    5.19    5.21</time>
   <time name="total">    5.19    5.21</time>
   <energy>
    <i name="e_fr_energy">    -93.43561008 </i>
    <i name="e_wo_entrp">    -93.43561008 </i>
    <i name="e_0_energy">    -93.43561008 </i>
   </energy>
  </scstep>
  <scstep>
   <time name="dav">    5.11    5.13</time>
   <time name="total">    5.11    5.13</time>
   <energy>
    <i name="e_fr_energy">    -93.70734411 </i>
    <i name="e_wo_entrp">    -93.70734411 </i>
    <i name="e_0_energy">    -93.70734411 </i>
   </energy>
  </scstep>
  <scstep>
   <time name="dav">    4.99    5.00</time>
   <time name="total">    5.27    5.28</time>
   <energy>
    <i name="e_fr_energy">    -93.71430739 </i>
    <i name="e_wo_entrp">    -93.71430739 </i>
    <i name="e_0_energy">    -93.71430739 </i>
   </energy>
  </scstep>
  <scstep>
   <time name="diag">    1.48    1.48</time>
   <time name="diis">    1.99    1.99</time>
   <time name="orth">    0.09    0.09</time>
   <time name="total">    3.93    3.94</time>
   <energy>
    <i name="e_fr_energy">    -92.48947844 </i>
    <i name="e_wo_entrp">    -92.48947844 </i>
    <i name="e_0_energy">    -92.48947844 </i>
   </energy>
  </scstep>
  <scstep>
   <time name="diag">    1.47    1.47</time>
   <time name="diis">    1.98    1.98</time>
   <time name="orth">    0.09    0.09</time>
   <time name="total">    3.90    3.91</time>
   <energy>
    <i name="e_fr_energy">    -91.92829677 </i>
    <i name="e_wo_entrp">    -91.92829677 </i>
    <i name="e_0_energy">    -91.92829677 </i>
   </energy>
  </scstep>
  <scstep>
   <time name="diag">    1.47    1.47</time>
   <time name="diis">    1.99    1.99</time>
   <time name="orth">    0.09    0.09</time>
   <time name="total">    3.91    3.93</time>
   <energy>
    <i name="e_fr_energy">    -91.93827730 </i>
    <i name="e_wo_entrp">    -91.93827730 </i>
    <i name="e_0_energy">    -91.93827730 </i>
   </energy>
  </scstep>
  <scstep>
   <time name="diag">    1.47    1.47</time>
   <time name="diis">    2.03    2.04</time>
   <time name="orth">    0.09    0.09</time>
   <time name="total">    3.98    3.98</time>
   <energy>
    <i name="e_fr_energy">    -91.94168082 </i>
    <i name="e_wo_entrp">    -91.94168082 </i>
    <i name="e_0_energy">    -91.94168082 </i>
   </energy>
  </scstep>
  <scstep>
   <time name="diag">    1.47    1.47</time>
   <time name="diis">    2.04    2.04</time>
   <time name="orth">    0.09    0.09</time>
   <time name="total">    3.96    3.98</time>
   <energy>
    <i name="e_fr_energy">    -91.94223749 </i>
    <i name="e_wo_entrp">    -91.94223749 </i>
    <i name="e_0_energy">    -91.94223749 </i>
   </energy>
  </scstep>
  <scstep>
   <time name="diag">    1.23    1.23</time>
   <time name="diis">    1.98    1.98</time>
   <time name="orth">    0.09    0.09</time>
   <time name="total">    3.68    3.68</time>
   <energy>
    <i name="e_fr_energy">    -91.94137857 </i>
    <i name="e_wo_entrp">    -91.94137857 </i>
    <i name="e_0_energy">    -91.94137857 </i>
   </energy>
  </scstep>
  <scstep>
   <time name="diag">    1.23    1.23</time>
   <time name="diis">    1.97    1.97</time>
   <time name="orth">    0.09    0.09</time>
   <time name="total">    3.65    3.67</time>
   <energy>
    <i name="e_fr_energy">    -91.94232367 </i>
    <i name="e_wo_entrp">    -91.94232367 </i>
    <i name="e_0_energy">    -91.94232367 </i>
   </energy>
  </scstep>
  <scstep>
   <time name="diag">    1.23    1.23</time>
   <time name="diis">    1.99    1.99</time>
   <time name="orth">    0.09    0.09</time>
   <time name="total">    3.69    3.69</time>
   <energy>
    <i name="e_fr_energy">    -91.94239885 </i>
    <i name="e_wo_entrp">    -91.94239885 </i>
    <i name="e_0_energy">    -91.94239885 </i>
   </energy>
  </scstep>
  <scstep>
   <time name="diag">    1.23    1.23</time>
   <time name="diis">    2.07    2.08</time>
   <time name="orth">    0.09    0.09</time>
   <time name="total">    3.76    3.77</time>
   <energy>
    <i name="e_fr_energy">    -91.94240256 </i>
    <i name="e_wo_entrp">    -91.94240256 </i>
    <i name="e_0_energy">    -91.94240256 </i>
   </energy>
  </scstep>
  <scstep>
   <time name="diag">    1.23    1.23</time>
   <time name="diis">    1.98    1.98</time>
   <time name="orth">    0.09    0.09</time>
   <time name="total">    3.67    3.67</time>
   <energy>
    <i name="e_fr_energy">    -91.94240096 </i>
    <i name="e_wo_entrp">    -91.94240096 </i>
    <i name="e_0_energy">    -91.94240096 </i>
   </energy>
  </scstep>
  <scstep>
   <time name="diag">    1.23    1.23</time>
   <time name="diis">    2.13    2.13</time>
   <time name="orth">    0.09    0.09</time>
   <time name="total">    3.81    3.82</time>
   <energy>
    <i name="e_fr_energy">    -91.94240228 </i>
    <i name="e_wo_entrp">    -91.94240228 </i>
    <i name="e_0_energy">    -91.94240228 </i>
   </energy>
  </scstep>
  <scstep>
   <time name="diag">    1.26    1.26</time>
   <time name="diis">    1.98    1.98</time>
   <time name="orth">    0.09    0.09</time>
   <time name="total">    3.70    3.70</time>
   <energy>
    <i name="e_fr_energy">    -91.94240210 </i>
    <i name="e_wo_entrp">    -91.94240210 </i>
    <i name="e_0_energy">    -91.94240210 </i>
   </energy>
  </scstep>
  <scstep>
   <time name="diag">    1.23    1.23</time>
   <time name="diis">    1.99    1.99</time>
   <time name="orth">    0.09    0.09</time>
   <time name="total">    3.66    3.68</time>
   <energy>
    <i name="e_fr_energy">    -91.94240230 </i>
    <i name="e_wo_entrp">    -91.94240230 </i>
    <i name="e_0_energy">    -91.94240230 </i>
   </energy>
  </scstep>
  <scstep>
   <time name="diag">    1.25    1.25</time>
   <time name="diis">    1.61    1.61</time>
   <time name="orth">    0.09    0.09</time>
   <time name="total">    3.33    3.33</time>
   <energy>
    <i name="e_fr_energy">    -91.94240227 </i>
    <i name="e_wo_entrp">    -91.94240227 </i>
    <i name="e_0_energy">    -91.94240227 </i>
   </energy>
  </scstep>
  <scstep>
   <time name="diag">    1.23    1.23</time>
   <time name="diis">    1.42    1.42</time>
   <time name="orth">    0.09    0.09</time>
   <time name="total">    2.86    2.87</time>
   <energy>
    <i name="alphaZ">     26.82694619 </i>
    <i name="ewald">  -1826.53982980 </i>
    <i name="hartreedc">   -117.13367290 </i>
    <i name="XCdc">   -134.89719393 </i>
    <i name="pawpsdc">   6908.51871811 </i>
    <i name="pawaedc">  -6633.60569700 </i>
    <i name="eentropy">     -0.00000000 </i>
    <i name="bandstr">     43.67634864 </i>
    <i name="atom">   1641.21197842 </i>
    <i name="e_fr_energy">    -91.94240227 </i>
    <i name="e_wo_entrp">    -91.94240227 </i>
    <i name="e_0_energy">    -91.94240227 </i>
   </energy>
  </scstep>
  <structure>
   <crystal>
    <varray name="basis" >
     <v>       0.00000000       5.43581180       5.43581180 </v>
     <v>       5.43581180       0.00000000       5.43581180 </v>
     <v>       5.43581180       5.43581180       0.00000000 </v>
    </varray>
    <i name="volume">    321.23527682 </i>
    <varray name="rec_basis" >
     <v>      -0.09198258       0.09198258       0.09198258 </v>
     <v>       0.09198258      -0.09198258       0.09198258 </v>
     <v>       0.09198258       0.09198258      -0.09198258 </v>
    </varray>
   </crystal>
   <varray name="positions" >
    <v>       0.12440572       0.12455931       0.12470588 </v>
    <v>       0.62507812       0.12509577       0.12404730 </v>
    <v>       0.12525397       0.62504246       0.12445699 </v>
    <v>       0.62431623       0.62556427       0.12554969 </v>
    <v>       0.12515869       0.12413735       0.62412231 </v>
    <v>       0.62482786       0.12525749       0.62447357 </v>
    <v>       0.12479720       0.62459234       0.62471179 </v>
    <v>       0.62461423       0.62439152       0.62454330 </v>
    <v>       0.00014719       0.99910474       0.99954696 </v>
    <v>       0.50051615       0.00023080       0.99935645 </v>
    <v>       0.00046037       0.49961852       0.99965531 </v>
    <v>       0.49954610       0.49934237       0.00034380 </v>
    <v>       0.00007471       0.99958604       0.49983229 </v>
    <v>       0.49963494       0.00052186       0.49922311 </v>
    <v>       0.00042169       0.50052960       0.49923111 </v>
    <v>       0.50020306       0.50036419       0.49913624 </v>
   </varray>
  </structure>
  <varray name="forces" >
   <v>      -0.01746934       0.04676964       0.05256663 </v>
   <v>       0.01801684       0.05732849      -0.01212166 </v>
   <v>      -0.02025094       0.00723008      -0.05206611 </v>
   <v>      -0.14121764      -0.03218126       0.04070744 </v>
   <v>       0.10543140      -0.00539172       0.06387041 </v>
   <v>      -0.02046677       0.00016797       0.00525980 </v>
   <v>       0.02447204       0.04084324       0.04691866 </v>
   <v>       0.07958218       0.05143885       0.08821482 </v>
   <v>       0.01785095      -0.04735511       0.04973312 </v>
   <v>       0.02256714      -0.07326667      -0.06979807 </v>
   <v>       0.03698148      -0.03483573      -0.05366793 </v>
   <v>       0.00867632      -0.00113681       0.11735613 </v>
   <v>      -0.03094873      -0.05392069      -0.03217498 </v>
   <v>      -0.05738465       0.05430852      -0.02728950 </v>
   <v>      -0.04582983      -0.01607078      -0.12809909 </v>
   <v>       0.01998953       0.00607198      -0.08940965 </v>
  </varray>
  <varray name="stress" >
   <v>       0.00830916       0.85875347       0.61048686 </v>
   <v>       0.85875348       0.02029567       0.10143738 </v>
   <v>       0.61048684       0.10143740       0.00258800 </v>
  </varray>
  <energy>
   <i name="e_fr_energy">    -91.94240227 </i>
   <i name="e_wo_entrp">    -91.94240227 </i>
   <i name="e_0_energy">    -91.94240227 </i>
  </energy>
  <time name="totalsc">   88.16   88.38</time>
 </calculation>
 <calculation>
  <scstep>
   <time name="dav">    4.28    4.28</time>
   <time name="total">    4.62    4.63</time>
   <energy>
    <i name="alphaZ">     26.82694619 </i>
    <i name="ewald">  -1826.55354213 </i>
    <i name="hartreedc">   -117.12625456 </i>
    <i name="XCdc">   -134.89721828 </i>
    <i name="pawpsdc">   6908.38774346 </i>
    <i name="pawaedc">  -6633.47473293 </i>
    <i name="eentropy">     -0.00000000 </i>
    <i name="bandstr">     43.67997416 </i>
    <i name="atom">   1641.21197842 </i>
    <i name="e_fr_energy">    -91.94510567 </i>
    <i name="e_wo_entrp">    -91.94510567 </i>
    <i name="e_0_energy">    -91.94510567 </i>
   </energy>
  </scstep>
  <scstep>
   <time name="diag">    1.47    1.47</time>
   <time name="diis">    1.97    1.98</time>
   <time name="orth">    0.09    0.09</time>
   <time name="total">    3.89    3.91</time>
   <energy>
    <i name="e_fr_energy">    -91.94563599 </i>
    <i name="e_wo_entrp">    -91.94563599 </i>
    <i name="e_0_energy">    -91.94563599 </i>
   </energy>
  </scstep>
  <scstep>
   <time name="diag">    1.47    1.47</time>
   <time name="diis">    1.99    1.99</time>
   <time name="orth">    0.09    0.09</time>
   <time name="total">    3.92    3.93</time>
   <energy>
    <i name="e_fr_energy">    -91.94568891 </i>
    <i name="e_wo_entrp">    -91.94568891 </i>
    <i name="e_0_energy">    -91.94568891 </i>
   </energy>
  </scstep>
  <scstep>
   <time name="diag">    1.47    1.47</time>
   <time name="diis">    2.11    2.11</time>
   <time name="orth">    0.09    0.09</time>
   <time name="total">    4.02    4.04</time>
   <energy>
    <i name="e_fr_energy">    -91.94569066 </i>
    <i name="e_wo_entrp">    -91.94569066 </i>
    <i name="e_0_energy">    -91.94569066 </i>
   </energy>
  </scstep>
  <scstep>
   <time name="diag">    1.47    1.47</time>
   <time name="diis">    2.16    2.16</time>
   <time name="orth">    0.09    0.09</time>
   <time name="total">    4.08    4.09</time>
   <energy>
    <i name="e_fr_energy">    -91.94569280 </i>
    <i name="e_wo_entrp">    -91.94569280 </i>
    <i name="e_0_energy">    -91.94569280 </i>
   </energy>
  </scstep>
  <scstep>
   <time name="diag">    1.47    1.47</time>
   <time name="diis">    2.23    2.23</time>
   <time name="orth">    0.09    0.09</time>
   <time name="total">    4.15    4.17</time>
   <energy>
    <i name="e_fr_energy">    -91.94569337 </i>
    <i name="e_wo_entrp">    -91.94569337 </i>
    <i name="e_0_energy">    -91.94569337 </i>
   </energy>
  </scstep>
  <scstep>
   <time name="diag">    1.23    1.23</time>
   <time name="diis">    2.09    2.10</time>
   <time name="orth">    0.09    0.09</time>
   <time name="total">    3.78    3.79</time>
   <energy>
    <i name="e_fr_energy">    -91.94569346 </i>
    <i name="e_wo_entrp">    -91.94569346 </i>
    <i name="e_0_energy">    -91.94569346 </i>
   </energy>
  </scstep>
  <scstep>
   <time name="diag">    1.23    1.24</time>
   <time name="diis">    1.92    1.92</time>
   <time name="orth">    0.09    0.09</time>
   <time name="total">    3.60    3.62</time>
   <energy>
    <i name="e_fr_energy">    -91.94569349 </i>
    <i name="e_wo_entrp">    -91.94569349 </i>
    <i name="e_0_energy">    -91.94569349 </i>
   </energy>
  </scstep>
  <scstep>
   <time name="diag">    1.23    1.23</time>
   <time name="diis">    1.73    1.73</time>
   <time name="orth">    0.09    0.09</time>
   <time name="total">    3.17    3.18</time>
   <energy>
    <i name="alphaZ">     26.82694619 </i>
    <i name="ewald">  -1826.55354213 </i>
    <i name="hartreedc">   -117.12706713 </i>
    <i name="XCdc">   -134.89725511 </i>
    <i name="pawpsdc">   6907.98782628 </i>
    <i name="pawaedc">  -6633.07467779 </i>
    <i name="eentropy">     -0.00000000 </i>
    <i name="bandstr">     43.68009778 </i>
    <i name="atom">   1641.21197842 </i>
    <i name="e_fr_energy">    -91.94569349 </i>
    <i name="e_wo_entrp">    -91.94569349 </i>
    <i name="e_0_energy">    -91.94569349 </i>
   </energy>
  </scstep>
  <structure>
   <crystal>
    <varray name="basis" >
     <v>       0.00000000       5.43581180       5.43581180 </v>
     <v>       5.43581180       0.00000000       5.43581180 </v>
     <v>       5.43581180       5.43581180       0.00000000 </v>
    </varray>
    <i name="volume">    321.23527682 </i>
    <varray name="rec_basis" >
     <v>      -0.09198258       0.09198258       0.09198258 </v>
     <v>       0.09198258      -0.09198258       0.09198258 </v>
     <v>       0.09198258       0.09198258      -0.09198258 </v>
    </varray>
   </crystal>
   <varray name="positions" >
    <v>       0.12492404       0.12450751       0.12460264 </v>
    <v>       0.62519877       0.12486754       0.12443543 </v>
    <v>       0.12514488       0.62468947       0.12463026 </v>
    <v>       0.62498072       0.62526106       0.12459959 </v>
    <v>       0.12495033       0.12491255       0.62428282 </v>
    <v>       0.62494276       0.12518926       0.62436015 </v>
    <v>       0.12507805       0.62472789       0.62479343 </v>
    <v>       0.62488079       0.62490786       0.62473326 </v>
    <v>       0.00007853       0.99961478       0.99919535 </v>
    <v>       0.49978116       0.00034633       0.99944120 </v>
    <v>      -0.00009647       0.49969906       0.99990298 </v>
    <v>       0.50002332       0.49990668      -0.00014351 </v>
    <v>      -0.00017000       0.99954520       0.49959846 </v>
    <v>       0.50000948      -0.00009487       0.49933055 </v>
    <v>      -0.00001470       0.49982911       0.49952487 </v>
    <v>       0.49974455       0.50002920       0.49964864 </v>
   </varray>
  </structure>
  <varray name="forces" >
   <v>       0.00882675      -0.01474640       0.00107672 </v>
   <v>       0.00622032      -0.00810147      -0.00114724 </v>
   <v>      -0.00070605      -0.00454937      -0.00412806 </v>
   <v>       0.00172938      -0.00589993      -0.00654444 </v>
   <v>      -0.01319462      -0.00238378      -0.00297673 </v>
   <v>      -0.00845467      -0.00354445      -0.02306535 </v>
   <v>      -0.00053650      -0.01300569      -0.02900110 </v>
   <v>      -0.00303165       0.00269944      -0.00179353 </v>
   <v>       0.01032839       0.01132665       0.01071719 </v>
   <v>      -0.01448555       0.00522537      -0.00076370 </v>
   <v>      -0.01393817       0.00269885      -0.00002389 </v>
   <v>      -0.01011423      -0.00040975       0.01082328 </v>
   <v>       0.00972134       0.00384516       0.02034250 </v>
   <v>       0.01364134       0.01116375       0.00108925 </v>
   <v>       0.01761779       0.00567633       0.00195160 </v>
   <v>      -0.00362389       0.01000530       0.02344350 </v>
  </varray>
  <varray name="stress" >
   <v>      -0.02239453      -0.24879734      -0.18289911 </v>
   <v>      -0.24879735      -0.02169219      -0.03370154 </v>
   <v>      -0.18289901      -0.03370160      -0.02198545 </v>
  </varray>
  <energy>
   <i name="e_fr_energy">    -91.94569349 </i>
   <i name="e_wo_entrp">    -91.94569349 </i>
   <i name="e_0_energy">    -91.94569349 </i>
  </energy>
  <time name="totalsc">   39.55   39.68</time>
 </calculation>
 <calculation>
  <scstep>
   <time name="dav">    4.53    4.53</time>
   <time name="total">    4.87    4.87</time>
   <energy>
    <i name="alphaZ">     26.82694619 </i>
    <i name="ewald">  -1826.55348500 </i>
    <i name="hartreedc">   -117.12714428 </i>
    <i name="XCdc">   -134.89725448 </i>
    <i name="pawpsdc">   6907.98700206 </i>
    <i name="pawaedc">  -6633.07385349 </i>
    <i name="eentropy">     -0.00000000 </i>
    <i name="bandstr">     43.68010536 </i>
    <i name="atom">   1641.21197842 </i>
    <i name="e_fr_energy">    -91.94570520 </i>
    <i name="e_wo_entrp">    -91.94570520 </i>
    <i name="e_0_energy">    -91.94570520 </i>
   </energy>
  </scstep>
  <scstep>
   <time name="diag">    1.47    1.47</time>
   <time name="diis">    2.01    2.01</time>
   <time name="orth">    0.09    0.09</time>
   <time name="total">    3.93    3.94</time>
   <energy>
    <i name="e_fr_energy">    -91.94570711 </i>
    <i name="e_wo_entrp">    -91.94570711 </i>
    <i name="e_0_energy">    -91.94570711 </i>
   </energy>
  </scstep>
  <scstep>
   <time name="diag">    1.47    1.47</time>
   <time name="diis">    1.98    1.98</time>
   <time name="orth">    0.09    0.09</time>
   <time name="total">    3.90    3.92</time>
   <energy>
    <i name="e_fr_energy">    -91.94570729 </i>
    <i name="e_wo_entrp">    -91.94570729 </i>
    <i name="e_0_energy">    -91.94570729 </i>
   </energy>
  </scstep>
  <scstep>
   <time name="diag">    1.47    1.47</time>
   <time name="diis">    2.08    2.09</time>
   <time name="orth">    0.09    0.09</time>
   <time name="total">    4.00    4.02</time>
   <energy>
    <i name="e_fr_energy">    -91.94570729 </i>
    <i name="e_wo_entrp">    -91.94570729 </i>
    <i name="e_0_energy">    -91.94570729 </i>
   </energy>
  </scstep>
  <scstep>
   <time name="diag">    1.47    1.47</time>
   <time name="diis">    2.11    2.11</time>
   <time name="orth">    0.09    0.09</time>
   <time name="total">    3.79    3.81</time>
   <energy>
    <i name="alphaZ">     26.82694619 </i>
    <i name="ewald">  -1826.55348500 </i>
    <i name="hartreedc">   -117.12714548 </i>
    <i name="XCdc">   -134.89725518 </i>
    <i name="pawpsdc">   6907.98826453 </i>
    <i name="pawaedc">  -6633.07511522 </i>
    <i name="eentropy">     -0.00000000 </i>
    <i name="bandstr">     43.68010445 </i>
    <i name="atom">   1641.21197842 </i>
    <i name="e_fr_energy">    -91.94570730 </i>
    <i name="e_wo_entrp">    -91.94570730 </i>
    <i name="e_0_energy">    -91.94570730 </i>
   </energy>
  </scstep>
  <structure>
   <crystal>
    <varray name="basis" >
     <v>       0.00000000       5.43581180       5.43581180 </v>
     <v>       5.43581180       0.00000000       5.43581180 </v>
     <v>       5.43581180       5.43581180       0.00000000 </v>
    </varray>
    <i name="volume">    321.23527682 </i>
    <varray name="rec_basis" >
     <v>      -0.09198258       0.09198258       0.09198258 </v>
     <v>       0.09198258      -0.09198258       0.09198258 </v>
     <v>       0.09198258       0.09198258      -0.09198258 </v>
    </varray>
   </crystal>
   <varray name="positions" >
    <v>       0.12489248       0.12451067       0.12460892 </v>
    <v>       0.62519143       0.12488143       0.12441180 </v>
    <v>       0.12515152       0.62471096       0.12461971 </v>
    <v>       0.62494026       0.62527952       0.12465744 </v>
    <v>       0.12496302       0.12486536       0.62427304 </v>
    <v>       0.62493577       0.12519341       0.62436706 </v>
    <v>       0.12506095       0.62471964       0.62478846 </v>
    <v>       0.62486456       0.62487642       0.62472169 </v>
    <v>       0.00008271       0.99958373       0.99921676 </v>
    <v>       0.49982591       0.00033930       0.99943604 </v>
    <v>      -0.00006256       0.49969415       0.99988791 </v>
    <v>       0.49999427       0.49987232      -0.00011384 </v>
    <v>      -0.00015510       0.99954768       0.49961270 </v>
    <v>       0.49998668      -0.00005732       0.49932401 </v>
    <v>       0.00001187       0.49987176       0.49950698 </v>
    <v>       0.49977246       0.50004959       0.49961744 </v>
   </varray>
  </structure>
  <varray name="forces" >
   <v>       0.00718061      -0.01094772       0.00427207 </v>
   <v>       0.00695399      -0.00411868      -0.00182953 </v>
   <v>      -0.00189755      -0.00383081      -0.00704838 </v>
   <v>      -0.00703931      -0.00744694      -0.00368033 </v>
   <v>      -0.00592708      -0.00264240       0.00113496 </v>
   <v>      -0.00920030      -0.00331068      -0.02133032 </v>
   <v>       0.00094129      -0.00974417      -0.02438644 </v>
   <v>       0.00201755       0.00562989       0.00371438 </v>
   <v>       0.01077135       0.00774780       0.01310987 </v>
   <v>      -0.01216278       0.00039034      -0.00502221 </v>
   <v>      -0.01079634       0.00035906      -0.00335466 </v>
   <v>      -0.00896436      -0.00043801       0.01737736 </v>
   <v>       0.00727245       0.00033664       0.01716033 </v>
   <v>       0.00927056       0.01383619      -0.00069553 </v>
   <v>       0.01375284       0.00443204      -0.00602697 </v>
   <v>      -0.00217292       0.00974743       0.01660541 </v>
  </varray>
  <varray name="stress" >
   <v>      -0.02253142      -0.18125233      -0.13482561 </v>
   <v>      -0.18125232      -0.02172339      -0.02568895 </v>
   <v>      -0.13482562      -0.02568889      -0.02214532 </v>
  </varray>
  <energy>
   <i name="e_fr_energy">    -91.94570730 </i>
   <i name="e_wo_entrp">    -91.94570730 </i>
   <i name="e_0_energy">    -91.94570730 </i>
  </energy>
  <time name="totalsc">   24.84   26.43</time>
 </calculation>
 <calculation>
  <scstep>
   <time name="dav">    4.26    4.26</time>
   <time name="total">    4.61    4.61</time>
   <energy>
    <i name="alphaZ">     26.82694619 </i>
    <i name="ewald">  -1826.55387695 </i>
    <i name="hartreedc">   -117.12688168 </i>
    <i name="XCdc">   -134.89725414 </i>
    <i name="pawpsdc">   6907.98604837 </i>
    <i name="pawaedc">  -6633.07289904 </i>
    <i name="eentropy">     -0.00000000 </i>
    <i name="bandstr">     43.68014059 </i>
    <i name="atom">   1641.21197842 </i>
    <i name="e_fr_energy">    -91.94579824 </i>
    <i name="e_wo_entrp">    -91.94579824 </i>
    <i name="e_0_energy">    -91.94579824 </i>
   </energy>
  </scstep>
  <scstep>
   <time name="diag">    1.47    1.47</time>
   <time name="diis">    1.98    1.98</time>
   <time name="orth">    0.09    0.09</time>
   <time name="total">    3.90    3.92</time>
   <energy>
    <i name="e_fr_energy">    -91.94581039 </i>
    <i name="e_wo_entrp">    -91.94581039 </i>
    <i name="e_0_energy">    -91.94581039 </i>
   </energy>
  </scstep>
  <scstep>
   <time name="diag">    1.47    1.47</time>
   <time name="diis">    1.98    1.98</time>
   <time name="orth">    0.09    0.09</time>
   <time name="total">    3.90    3.92</time>
   <energy>
    <i name="e_fr_energy">    -91.94581193 </i>
    <i name="e_wo_entrp">    -91.94581193 </i>
    <i name="e_0_energy">    -91.94581193 </i>
   </energy>
  </scstep>
  <scstep>
   <time name="diag">    1.47    1.47</time>
   <time name="diis">    2.08    2.08</time>
   <time name="orth">    0.09    0.09</time>
   <time name="total">    4.01    4.03</time>
   <energy>
    <i name="e_fr_energy">    -91.94581209 </i>
    <i name="e_wo_entrp">    -91.94581209 </i>
    <i name="e_0_energy">    -91.94581209 </i>
   </energy>
  </scstep>
  <scstep>
   <time name="diag">    1.47    1.47</time>
   <time name="diis">    2.11    2.11</time>
   <time name="orth">    0.09    0.09</time>
   <time name="total">    4.03    4.05</time>
   <energy>
    <i name="e_fr_energy">    -91.94581214 </i>
    <i name="e_wo_entrp">    -91.94581214 </i>
    <i name="e_0_energy">    -91.94581214 </i>
   </energy>
  </scstep>
  <scstep>
   <time name="diag">    1.47    1.47</time>
   <time name="diis">    2.21    2.22</time>
   <time name="orth">    0.09    0.09</time>
   <time name="total">    4.14    4.16</time>
   <energy>
    <i name="e_fr_energy">    -91.94581216 </i>
    <i name="e_wo_entrp">    -91.94581216 </i>
    <i name="e_0_energy">    -91.94581216 </i>
   </energy>
  </scstep>
  <scstep>
   <time name="diag">    1.23    1.23</time>
   <time name="diis">    1.64    1.64</time>
   <time name="orth">    0.10    0.10</time>
   <time name="total">    3.08    3.10</time>
   <energy>
    <i name="alphaZ">     26.82694619 </i>
    <i name="ewald">  -1826.55387695 </i>
    <i name="hartreedc">   -117.12691372 </i>
    <i name="XCdc">   -134.89725242 </i>
    <i name="pawpsdc">   6907.97796576 </i>
    <i name="pawaedc">  -6633.06481411 </i>
    <i name="eentropy">     -0.00000000 </i>
    <i name="bandstr">     43.68015467 </i>
    <i name="atom">   1641.21197842 </i>
    <i name="e_fr_energy">    -91.94581216 </i>
    <i name="e_wo_entrp">    -91.94581216 </i>
    <i name="e_0_energy">    -91.94581216 </i>
   </energy>
  </scstep>
  <structure>
   <crystal>
    <varray name="basis" >
     <v>       0.00000000       5.43581180       5.43581180 </v>
     <v>       5.43581180       0.00000000       5.43581180 </v>
     <v>       5.43581180       5.43581180       0.00000000 </v>
    </varray>
    <i name="volume">    321.23527682 </i>
    <varray name="rec_basis" >
     <v>      -0.09198258       0.09198258       0.09198258 </v>
     <v>       0.09198258      -0.09198258       0.09198258 </v>
     <v>       0.09198258       0.09198258      -0.09198258 </v>
    </varray>
   </crystal>
   <varray name="positions" >
    <v>       0.12484578       0.12460746       0.12457089 </v>
    <v>       0.62513814       0.12491577       0.12444276 </v>
    <v>       0.12510919       0.62467898       0.12463019 </v>
    <v>       0.62494034       0.62525696       0.12458434 </v>
    <v>       0.12497675       0.12487693       0.62423485 </v>
    <v>       0.62487120       0.12507225       0.62440265 </v>
    <v>       0.12491482       0.62466325       0.62485898 </v>
    <v>       0.62490390       0.62489086       0.62474408 </v>
    <v>       0.00012506       0.99966827       0.99923094 </v>
    <v>       0.49983901       0.00026539       0.99940874 </v>
    <v>      -0.00004345       0.49963273       0.99986357 </v>
    <v>       0.50012074       0.49992641      -0.00024442 </v>
    <v>      -0.00011691       0.99965220       0.49956450 </v>
    <v>       0.50001379      -0.00009709       0.49943126 </v>
    <v>      -0.00006722       0.49986723       0.49962107 </v>
    <v>       0.49988508       0.50006105       0.49959173 </v>
   </varray>
  </structure>
  <varray name="forces" >
   <v>       0.00254235      -0.00027797       0.00418543 </v>
   <v>       0.00162705      -0.00134397      -0.00055014 </v>
   <v>       0.00094199       0.00049506       0.00139125 </v>
   <v>      -0.00201284       0.00165180      -0.00185974 </v>
   <v>       0.00030073       0.00407786       0.00088116 </v>
   <v>      -0.00074091       0.00226967      -0.00103992 </v>
   <v>      -0.00056468      -0.00296987      -0.00013731 </v>
   <v>      -0.00123120       0.00012037       0.00230210 </v>
   <v>       0.00384163       0.00141606       0.00066362 </v>
   <v>      -0.00341424       0.00189302      -0.00265720 </v>
   <v>      -0.00179262      -0.00320305      -0.00038436 </v>
   <v>      -0.00283902      -0.00394277      -0.00169121 </v>
   <v>       0.00193823      -0.00088477       0.00160607 </v>
   <v>       0.00159414      -0.00024219      -0.00235189 </v>
   <v>       0.00108550      -0.00031576      -0.00120217 </v>
   <v>      -0.00127612       0.00125650       0.00084429 </v>
  </varray>
  <varray name="stress" >
   <v>      -0.02287728       0.01918910       0.01464725 </v>
   <v>       0.01918914      -0.02273873       0.00317015 </v>
   <v>       0.01464728       0.00317016      -0.02268119 </v>
  </varray>
  <energy>
   <i name="e_fr_energy">    -91.94581216 </i>
   <i name="e_wo_entrp">    -91.94581216 </i>
   <i name="e_0_energy">    -91.94581216 </i>
  </energy>
  <time name="totalsc">   32.03   32.15</time>
 </calculation>
 <calculation>
  <scstep>
   <time name="dav">    4.69    4.69</time>
   <time name="total">    5.03    5.03</time>
   <energy>
    <i name="alphaZ">     26.82694619 </i>
    <i name="ewald">  -1826.55387222 </i>
    <i name="hartreedc">   -117.12691491 </i>
    <i name="XCdc">   -134.89725217 </i>
    <i name="pawpsdc">   6907.97993265 </i>
    <i name="pawaedc">  -6633.06678109 </i>
    <i name="eentropy">     -0.00000000 </i>
    <i name="bandstr">     43.68015034 </i>
    <i name="atom">   1641.21197842 </i>
    <i name="e_fr_energy">    -91.94581280 </i>
    <i name="e_wo_entrp">    -91.94581280 </i>
    <i name="e_0_energy">    -91.94581280 </i>
   </energy>
  </scstep>
  <scstep>
   <time name="diag">    1.47    1.47</time>
   <time name="diis">    1.98    1.98</time>
   <time name="orth">    0.09    0.09</time>
   <time name="total">    3.90    3.91</time>
   <energy>
    <i name="e_fr_energy">    -91.94581291 </i>
    <i name="e_wo_entrp">    -91.94581291 </i>
    <i name="e_0_energy">    -91.94581291 </i>
   </energy>
  </scstep>
  <scstep>
   <time name="diag">    1.47    1.47</time>
   <time name="diis">    2.02    2.02</time>
   <time name="orth">    0.09    0.09</time>
   <time name="total">    3.95    3.97</time>
   <energy>
    <i name="e_fr_energy">    -91.94581292 </i>
    <i name="e_wo_entrp">    -91.94581292 </i>
    <i name="e_0_energy">    -91.94581292 </i>
   </energy>
  </scstep>
  <scstep>
   <time name="diag">    1.48    1.48</time>
   <time name="diis">    1.75    1.75</time>
   <time name="orth">    0.09    0.09</time>
   <time name="total">    3.69    3.71</time>
   <energy>
    <i name="e_fr_energy">    -91.94581292 </i>
    <i name="e_wo_entrp">    -91.94581292 </i>
    <i name="e_0_energy">    -91.94581292 </i>
   </energy>
  </scstep>
  <scstep>
   <time name="diag">    1.47    1.47</time>
   <time name="diis">    1.37    1.37</time>
   <time name="orth">    0.09    0.09</time>
   <time name="total">    3.05    3.07</time>
   <energy>
    <i name="alphaZ">     26.82694619 </i>
    <i name="ewald">  -1826.55387222 </i>
    <i name="hartreedc">   -117.12691514 </i>
    <i name="XCdc">   -134.89725231 </i>
    <i name="pawpsdc">   6907.97829298 </i>
    <i name="pawaedc">  -6633.06514154 </i>
    <i name="eentropy">     -0.00000000 </i>
    <i name="bandstr">     43.68015071 </i>
    <i name="atom">   1641.21197842 </i>
    <i name="e_fr_energy">    -91.94581292 </i>
    <i name="e_wo_entrp">    -91.94581292 </i>
    <i name="e_0_energy">    -91.94581292 </i>
   </energy>
  </scstep>
  <structure>
   <crystal>
    <varray name="basis" >
     <v>       0.00000000       5.43581180       5.43581180 </v>
     <v>       5.43581180       0.00000000       5.43581180 </v>
     <v>       5.43581180       5.43581180       0.00000000 </v>
    </varray>
    <i name="volume">    321.23527682 </i>
    <varray name="rec_basis" >
     <v>      -0.09198258       0.09198258       0.09198258 </v>
     <v>       0.09198258      -0.09198258       0.09198258 </v>
     <v>       0.09198258       0.09198258      -0.09198258 </v>
    </varray>
   </crystal>
   <varray name="positions" >
    <v>       0.12484153       0.12461627       0.12456742 </v>
    <v>       0.62513328       0.12491889       0.12444558 </v>
    <v>       0.12510534       0.62467606       0.12463114 </v>
    <v>       0.62494034       0.62525491       0.12457768 </v>
    <v>       0.12497800       0.12487798       0.62423137 </v>
    <v>       0.62486531       0.12506121       0.62440589 </v>
    <v>       0.12490151       0.62465812       0.62486540 </v>
    <v>       0.62490748       0.62489217       0.62474612 </v>
    <v>       0.00012892       0.99967597       0.99923224 </v>
    <v>       0.49984021       0.00025866       0.99940626 </v>
    <v>      -0.00004171       0.49962714       0.99986135 </v>
    <v>       0.50013226       0.49993133      -0.00025632 </v>
    <v>      -0.00011343       0.99966172       0.49956010 </v>
    <v>       0.50001626      -0.00010071       0.49944103 </v>
    <v>      -0.00007443       0.49986681       0.49963146 </v>
    <v>       0.49989534       0.50006210       0.49958939 </v>
   </varray>
  </structure>
  <varray name="forces" >
   <v>       0.00212634       0.00069271       0.00418409 </v>
   <v>       0.00115098      -0.00109246      -0.00043862 </v>
   <v>       0.00119726       0.00088772       0.00215092 </v>
   <v>      -0.00156104       0.00247590      -0.00169278 </v>
   <v>       0.00086222       0.00468684       0.00086565 </v>
   <v>       0.00002356       0.00277793       0.00079498 </v>
   <v>      -0.00069725      -0.00235798       0.00205584 </v>
   <v>      -0.00152294      -0.00037915       0.00218105 </v>
   <v>       0.00321592       0.00084234      -0.00045924 </v>
   <v>      -0.00262315       0.00202728      -0.00245025 </v>
   <v>      -0.00097718      -0.00352643      -0.00011911 </v>
   <v>      -0.00228917      -0.00426363      -0.00341228 </v>
   <v>       0.00145638      -0.00099846       0.00020398 </v>
   <v>       0.00089563      -0.00151616      -0.00251182 </v>
   <v>      -0.00006169      -0.00074881      -0.00077592 </v>
   <v>      -0.00119587       0.00049234      -0.00057649 </v>
  </varray>
  <varray name="stress" >
   <v>      -0.02282816       0.03735828       0.02821015 </v>
   <v>       0.03735824      -0.02274240       0.00581316 </v>
   <v>       0.02821012       0.00581315      -0.02268688 </v>
  </varray>
  <energy>
   <i name="e_fr_energy">    -91.94581292 </i>
   <i name="e_wo_entrp">    -91.94581292 </i>
   <i name="e_0_energy">    -91.94581292 </i>
  </energy>
  <time name="totalsc">   23.95   24.03</time>
 </calculation>
 <calculation>
  <scstep>
   <time name="dav">    4.15    4.15</time>
   <time name="total">    4.49    4.50</time>
   <energy>
    <i name="alphaZ">     26.82694619 </i>
    <i name="ewald">  -1826.55380472 </i>
    <i name="hartreedc">   -117.12695196 </i>
    <i name="XCdc">   -134.89724940 </i>
    <i name="pawpsdc">   6907.97950975 </i>
    <i name="pawaedc">  -6633.06635832 </i>
    <i name="eentropy">     -0.00000000 </i>
    <i name="bandstr">     43.68011047 </i>
    <i name="atom">   1641.21197842 </i>
    <i name="e_fr_energy">    -91.94581958 </i>
    <i name="e_wo_entrp">    -91.94581958 </i>
    <i name="e_0_energy">    -91.94581958 </i>
   </energy>
  </scstep>
  <scstep>
   <time name="diag">    1.48    1.48</time>
   <time name="diis">    1.98    1.98</time>
   <time name="orth">    0.09    0.09</time>
   <time name="total">    3.91    3.92</time>
   <energy>
    <i name="e_fr_energy">    -91.94581988 </i>
    <i name="e_wo_entrp">    -91.94581988 </i>
    <i name="e_0_energy">    -91.94581988 </i>
   </energy>
  </scstep>
  <scstep>
   <time name="diag">    1.47    1.47</time>
   <time name="diis">    1.99    1.99</time>
   <time name="orth">    0.09    0.09</time>
   <time name="total">    3.92    3.93</time>
   <energy>
    <i name="e_fr_energy">    -91.94581991 </i>
    <i name="e_wo_entrp">    -91.94581991 </i>
    <i name="e_0_energy">    -91.94581991 </i>
   </energy>
  </scstep>
  <scstep>
   <time name="diag">    1.47    1.47</time>
   <time name="diis">    2.04    2.04</time>
   <time name="orth">    0.09    0.09</time>
   <time name="total">    3.96    3.98</time>
   <energy>
    <i name="e_fr_energy">    -91.94581991 </i>
    <i name="e_wo_entrp">    -91.94581991 </i>
    <i name="e_0_energy">    -91.94581991 </i>
   </energy>
  </scstep>
  <scstep>
   <time name="diag">    1.47    1.47</time>
   <time name="diis">    1.41    1.41</time>
   <time name="orth">    0.09    0.09</time>
   <time name="total">    3.10    3.11</time>
   <energy>
    <i name="alphaZ">     26.82694619 </i>
    <i name="ewald">  -1826.55380472 </i>
    <i name="hartreedc">   -117.12696573 </i>
    <i name="XCdc">   -134.89724755 </i>
    <i name="pawpsdc">   6907.98306257 </i>
    <i name="pawaedc">  -6633.06991249 </i>
    <i name="eentropy">     -0.00000000 </i>
    <i name="bandstr">     43.68012341 </i>
    <i name="atom">   1641.21197842 </i>
    <i name="e_fr_energy">    -91.94581991 </i>
    <i name="e_wo_entrp">    -91.94581991 </i>
    <i name="e_0_energy">    -91.94581991 </i>
   </energy>
  </scstep>
  <structure>
   <crystal>
    <varray name="basis" >
     <v>       0.00000000       5.43581180       5.43581180 </v>
     <v>       5.43581180       0.00000000       5.43581180 </v>
     <v>       5.43581180       5.43581180       0.00000000 </v>
    </varray>
    <i name="volume">    321.23527682 </i>
    <varray name="rec_basis" >
     <v>      -0.09198258       0.09198258       0.09198258 </v>
     <v>       0.09198258      -0.09198258       0.09198258 </v>
     <v>       0.09198258       0.09198258      -0.09198258 </v>
    </varray>
   </crystal>
   <varray name="positions" >
    <v>       0.12485167       0.12464577       0.12455959 </v>
    <v>       0.62511888       0.12492852       0.12444922 </v>
    <v>       0.12511162       0.62468558       0.12463133 </v>
    <v>       0.62495081       0.62522830       0.12458597 </v>
    <v>       0.12499956       0.12486531       0.62425053 </v>
    <v>       0.62487820       0.12504693       0.62441647 </v>
    <v>       0.12489659       0.62467213       0.62484581 </v>
    <v>       0.62492412       0.62489746       0.62472891 </v>
    <v>       0.00011821       0.99968838       0.99925305 </v>
    <v>       0.49985063       0.00022358       0.99941329 </v>
    <v>      -0.00005275       0.49963517       0.99984067 </v>
    <v>       0.50011400       0.49992739      -0.00027631 </v>
    <v>      -0.00012173       0.99967837       0.49955903 </v>
    <v>       0.49999552      -0.00010298       0.49945437 </v>
    <v>      -0.00008457       0.49986621       0.49963653 </v>
    <v>       0.49990546       0.50005251       0.49958765 </v>
   </varray>
  </structure>
  <varray name="forces" >
   <v>       0.00111203       0.00099980       0.00245205 </v>
   <v>       0.00007914      -0.00088903      -0.00158819 </v>
   <v>       0.00090428      -0.00131207       0.00002720 </v>
   <v>      -0.00244570       0.00055593      -0.00324063 </v>
   <v>       0.00205329       0.00212445      -0.00113694 </v>
   <v>       0.00022580       0.00124964      -0.00013713 </v>
   <v>      -0.00082157      -0.00182251       0.00254762 </v>
   <v>      -0.00122031      -0.00139141       0.00049309 </v>
   <v>       0.00323861       0.00120258      -0.00014959 </v>
   <v>      -0.00135633       0.00234680      -0.00133323 </v>
   <v>       0.00036927      -0.00192852       0.00249147 </v>
   <v>      -0.00113237      -0.00227019      -0.00130334 </v>
   <v>       0.00096575       0.00031136       0.00152328 </v>
   <v>       0.00011025      -0.00013245       0.00030102 </v>
   <v>      -0.00158747       0.00038461       0.00030649 </v>
   <v>      -0.00049466       0.00057102      -0.00125316 </v>
  </varray>
  <varray name="stress" >
   <v>      -0.02268544      -0.00206385      -0.00192025 </v>
   <v>      -0.00206381      -0.02256669      -0.00043085 </v>
   <v>      -0.00192027      -0.00043082      -0.02260244 </v>
  </varray>
  <energy>
   <i name="e_fr_energy">    -91.94581991 </i>
   <i name="e_wo_entrp">    -91.94581991 </i>
   <i name="e_0_energy">    -91.94581991 </i>
  </energy>
  <time name="totalsc">   23.76   23.84</time>
 </calculation>
 <calculation>
  <scstep>
   <time name="dav">    4.17    4.17</time>
   <time name="total">    4.52    4.52</time>
   <energy>
    <i name="alphaZ">     26.82694619 </i>
    <i name="ewald">  -1826.55371635 </i>
    <i name="hartreedc">   -117.12701213 </i>
    <i name="XCdc">   -134.89724430 </i>
    <i name="pawpsdc">   6907.98377838 </i>
    <i name="pawaedc">  -6633.07062831 </i>
    <i name="eentropy">     -0.00000000 </i>
    <i name="bandstr">     43.68007561 </i>
    <i name="atom">   1641.21197842 </i>
    <i name="e_fr_energy">    -91.94582250 </i>
    <i name="e_wo_entrp">    -91.94582250 </i>
    <i name="e_0_energy">    -91.94582250 </i>
   </energy>
  </scstep>
  <scstep>
   <time name="diag">    1.47    1.47</time>
   <time name="diis">    1.98    1.98</time>
   <time name="orth">    0.09    0.09</time>
   <time name="total">    3.90    3.92</time>
   <energy>
    <i name="e_fr_energy">    -91.94582294 </i>
    <i name="e_wo_entrp">    -91.94582294 </i>
    <i name="e_0_energy">    -91.94582294 </i>
   </energy>
  </scstep>
  <scstep>
   <time name="diag">    1.47    1.47</time>
   <time name="diis">    1.99    1.99</time>
   <time name="orth">    0.09    0.09</time>
   <time name="total">    3.91    3.93</time>
   <energy>
    <i name="e_fr_energy">    -91.94582299 </i>
    <i name="e_wo_entrp">    -91.94582299 </i>
    <i name="e_0_energy">    -91.94582299 </i>
   </energy>
  </scstep>
  <scstep>
   <time name="diag">    1.47    1.47</time>
   <time name="diis">    2.04    2.05</time>
   <time name="orth">    0.09    0.09</time>
   <time name="total">    3.97    3.98</time>
   <energy>
    <i name="e_fr_energy">    -91.94582300 </i>
    <i name="e_wo_entrp">    -91.94582300 </i>
    <i name="e_0_energy">    -91.94582300 </i>
   </energy>
  </scstep>
  <scstep>
   <time name="diag">    1.48    1.48</time>
   <time name="diis">    1.61    1.61</time>
   <time name="orth">    0.09    0.09</time>
   <time name="total">    3.30    3.31</time>
   <energy>
    <i name="alphaZ">     26.82694619 </i>
    <i name="ewald">  -1826.55371635 </i>
    <i name="hartreedc">   -117.12702803 </i>
    <i name="XCdc">   -134.89724216 </i>
    <i name="pawpsdc">   6907.98683351 </i>
    <i name="pawaedc">  -6633.07368513 </i>
    <i name="eentropy">     -0.00000000 </i>
    <i name="bandstr">     43.68009055 </i>
    <i name="atom">   1641.21197842 </i>
    <i name="e_fr_energy">    -91.94582300 </i>
    <i name="e_wo_entrp">    -91.94582300 </i>
    <i name="e_0_energy">    -91.94582300 </i>
   </energy>
  </scstep>
  <structure>
   <crystal>
    <varray name="basis" >
     <v>       0.00000000       5.43581180       5.43581180 </v>
     <v>       5.43581180       0.00000000       5.43581180 </v>
     <v>       5.43581180       5.43581180       0.00000000 </v>
    </varray>
    <i name="volume">    321.23527682 </i>
    <varray name="rec_basis" >
     <v>      -0.09198258       0.09198258       0.09198258 </v>
     <v>       0.09198258      -0.09198258       0.09198258 </v>
     <v>       0.09198258       0.09198258      -0.09198258 </v>
    </varray>
   </crystal>
   <varray name="positions" >
    <v>       0.12486399       0.12468161       0.12455008 </v>
    <v>       0.62510138       0.12494021       0.12445363 </v>
    <v>       0.12511925       0.62469715       0.12463155 </v>
    <v>       0.62496352       0.62519599       0.12459605 </v>
    <v>       0.12502575       0.12484991       0.62427380 </v>
    <v>       0.62489386       0.12502957       0.62442933 </v>
    <v>       0.12489061       0.62468914       0.62482202 </v>
    <v>       0.62494433       0.62490389       0.62470802 </v>
    <v>       0.00010521       0.99970345       0.99927833 </v>
    <v>       0.49986328       0.00018098       0.99942182 </v>
    <v>      -0.00006615       0.49964494       0.99981554 </v>
    <v>       0.50009182       0.49992260      -0.00030059 </v>
    <v>      -0.00013182       0.99969859       0.49955773 </v>
    <v>       0.49997034      -0.00010573       0.49947058 </v>
    <v>      -0.00009690       0.49986548       0.49964267 </v>
    <v>       0.49991774       0.50004087       0.49958553 </v>
   </varray>
  </structure>
  <varray name="forces" >
   <v>      -0.00011262       0.00138112       0.00036778 </v>
   <v>      -0.00121821      -0.00064059      -0.00297874 </v>
   <v>       0.00055871      -0.00397272      -0.00253260 </v>
   <v>      -0.00352070      -0.00175942      -0.00512248 </v>
   <v>       0.00350891      -0.00096389      -0.00356144 </v>
   <v>       0.00047513      -0.00059046      -0.00125580 </v>
   <v>      -0.00097683      -0.00117713       0.00316204 </v>
   <v>      -0.00086038      -0.00261965      -0.00154576 </v>
   <v>       0.00327596       0.00163625       0.00021600 </v>
   <v>       0.00017155       0.00273900       0.00001173 </v>
   <v>       0.00199847      -0.00000995       0.00565705 </v>
   <v>       0.00026081       0.00012908       0.00123179 </v>
   <v>       0.00037515       0.00189544       0.00311547 </v>
   <v>      -0.00084345       0.00153686       0.00370309 </v>
   <v>      -0.00344167       0.00175352       0.00161701 </v>
   <v>       0.00034917       0.00066254      -0.00208513 </v>
  </varray>
  <varray name="stress" >
   <v>      -0.02247485      -0.04950680      -0.03816986 </v>
   <v>      -0.04950683      -0.02234143      -0.00791431 </v>
   <v>      -0.03816982      -0.00791436      -0.02247639 </v>
  </varray>
  <energy>
   <i name="e_fr_energy">    -91.94582300 </i>
   <i name="e_wo_entrp">    -91.94582300 </i>
   <i name="e_0_energy">    -91.94582300 </i>
  </energy>
  <time name="totalsc">   24.02   24.13</time>
 </calculation>
 <calculation>
  <scstep>
   <time name="dav">    4.18    4.19</time>
   <time name="total">    4.53    4.53</time>
   <energy>
    <i name="alphaZ">     26.82694619 </i>
    <i name="ewald">  -1826.55366588 </i>
    <i name="hartreedc">   -117.12705606 </i>
    <i name="XCdc">   -134.89723992 </i>
    <i name="pawpsdc">   6907.98760908 </i>
    <i name="pawaedc">  -6633.07446072 </i>
    <i name="eentropy">     -0.00000000 </i>
    <i name="bandstr">     43.68006115 </i>
    <i name="atom">   1641.21197842 </i>
    <i name="e_fr_energy">    -91.94582774 </i>
    <i name="e_wo_entrp">    -91.94582774 </i>
    <i name="e_0_energy">    -91.94582774 </i>
   </energy>
  </scstep>
  <scstep>
   <time name="diag">    1.47    1.47</time>
   <time name="diis">    1.98    1.98</time>
   <time name="orth">    0.09    0.09</time>
   <time name="total">    3.90    3.91</time>
   <energy>
    <i name="e_fr_energy">    -91.94582779 </i>
    <i name="e_wo_entrp">    -91.94582779 </i>
    <i name="e_0_energy">    -91.94582779 </i>
   </energy>
  </scstep>
  <scstep>
   <time name="diag">    1.47    1.47</time>
   <time name="diis">    2.03    2.03</time>
   <time name="orth">    0.09    0.09</time>
   <time name="total">    3.96    3.97</time>
   <energy>
    <i name="e_fr_energy">    -91.94582780 </i>
    <i name="e_wo_entrp">    -91.94582780 </i>
    <i name="e_0_energy">    -91.94582780 </i>
   </energy>
  </scstep>
  <scstep>
[...]
    </varray>
    <i name="volume">    321.23527682 </i>
    <varray name="rec_basis" >
     <v>      -0.09198258       0.09198258       0.09198258 </v>
     <v>       0.09198258      -0.09198258       0.09198258 </v>
     <v>       0.09198258       0.09198258      -0.09198258 </v>
    </varray>
   </crystal>
   <varray name="positions" >
    <v>       0.12496622       0.12487148       0.12455845 </v>
    <v>       0.62496580       0.12487112       0.12455858 </v>
    <v>       0.12496582       0.62487141       0.12455841 </v>
    <v>       0.62496609       0.62487062       0.12455853 </v>
    <v>       0.12496594       0.12487112       0.62455895 </v>
    <v>       0.62496614       0.12487091       0.62455873 </v>
    <v>       0.12496603       0.62487145       0.62455814 </v>
    <v>       0.62496606       0.62487120       0.62455826 </v>
    <v>      -0.00003416       0.99987138       0.99955895 </v>
    <v>       0.49996613      -0.00012930       0.99955871 </v>
    <v>      -0.00003401       0.49987149       0.99955815 </v>
    <v>       0.49996581       0.49987112      -0.00044171 </v>
    <v>      -0.00003389       0.99987144       0.49955844 </v>
    <v>       0.49996598      -0.00012885       0.49955860 </v>
    <v>      -0.00003384       0.49987106       0.49955843 </v>
    <v>       0.49996609       0.49987097       0.49955849 </v>
   </varray>
  </structure>
  <varray name="forces" >
   <v>      -0.00000370      -0.00000432      -0.00000750 </v>
   <v>       0.00000249       0.00000143       0.00000532 </v>
   <v>      -0.00000081       0.00000858      -0.00000094 </v>
   <v>       0.00000966      -0.00000203       0.00000066 </v>
   <v>      -0.00000853      -0.00000206       0.00000049 </v>
   <v>       0.00000047      -0.00001110       0.00000186 </v>
   <v>      -0.00000315       0.00000291      -0.00000365 </v>
   <v>       0.00000239       0.00000427       0.00000239 </v>
   <v>      -0.00000937      -0.00000654      -0.00000272 </v>
   <v>      -0.00000275      -0.00000070       0.00000833 </v>
   <v>       0.00000035       0.00000342      -0.00000001 </v>
   <v>       0.00000122       0.00000399       0.00000632 </v>
   <v>      -0.00000020      -0.00000071      -0.00000888 </v>
   <v>       0.00000022      -0.00000046       0.00000348 </v>
   <v>       0.00000452      -0.00000123      -0.00000392 </v>
   <v>       0.00000720       0.00000455      -0.00000124 </v>
  </varray>
  <varray name="stress" >
   <v>      -0.02172700       0.00000071      -0.00000409 </v>
   <v>       0.00000071      -0.02172748       0.00000120 </v>
   <v>      -0.00000406       0.00000116      -0.02172938 </v>
  </varray>
  <energy>
   <i name="e_fr_energy">    -91.94585672 </i>
   <i name="e_wo_entrp">    -91.94585672 </i>
   <i name="e_0_energy">    -91.94585672 </i>
  </energy>
  <time name="totalsc">   18.20   18.30</time>
 </calculation>
 <calculation>
  <scstep>
   <time name="dav">    2.85    2.85</time>
   <time name="total">    3.19    3.20</time>
   <energy>
    <i name="alphaZ">     26.82694619 </i>
    <i name="ewald">  -1826.55336167 </i>
    <i name="hartreedc">   -117.12729819 </i>
    <i name="XCdc">   -134.89721700 </i>
    <i name="pawpsdc">   6908.00481574 </i>
    <i name="pawaedc">  -6633.09167458 </i>
    <i name="eentropy">     -0.00000000 </i>
    <i name="bandstr">     43.67995436 </i>
    <i name="atom">   1641.21197842 </i>
    <i name="e_fr_energy">    -91.94585672 </i>
    <i name="e_wo_entrp">    -91.94585672 </i>
    <i name="e_0_energy">    -91.94585672 </i>
   </energy>
  </scstep>
  <scstep>
   <time name="diag">    1.47    1.47</time>
   <time name="diis">    0.67    0.67</time>
   <time name="orth">    0.09    0.09</time>
   <time name="total">    2.60    2.61</time>
   <energy>
    <i name="e_fr_energy">    -91.94585672 </i>
    <i name="e_wo_entrp">    -91.94585672 </i>
    <i name="e_0_energy">    -91.94585672 </i>
   </energy>
  </scstep>
  <scstep>
   <time name="diag">    1.47    1.47</time>
   <time name="diis">    0.66    0.66</time>
   <time name="orth">    0.09    0.09</time>
   <time name="total">    2.58    2.60</time>
   <energy>
    <i name="e_fr_energy">    -91.94585672 </i>
    <i name="e_wo_entrp">    -91.94585672 </i>
    <i name="e_0_energy">    -91.94585672 </i>
   </energy>
  </scstep>
  <scstep>
   <time name="diag">    1.47    1.47</time>
   <time name="diis">    0.69    0.69</time>
   <time name="orth">    0.09    0.09</time>
   <time name="total">    2.61    2.63</time>
   <energy>
    <i name="e_fr_energy">    -91.94585672 </i>
    <i name="e_wo_entrp">    -91.94585672 </i>
    <i name="e_0_energy">    -91.94585672 </i>
   </energy>
  </scstep>
  <scstep>
   <time name="diag">    1.47    1.47</time>
   <time name="diis">    0.66    0.66</time>
   <time name="orth">    0.09    0.09</time>
   <time name="total">    2.34    2.36</time>
   <energy>
    <i name="alphaZ">     26.82694619 </i>
    <i name="ewald">  -1826.55336167 </i>
    <i name="hartreedc">   -117.12729795 </i>
    <i name="XCdc">   -134.89721701 </i>
    <i name="pawpsdc">   6908.00490720 </i>
    <i name="pawaedc">  -6633.09176602 </i>
    <i name="eentropy">     -0.00000000 </i>
    <i name="bandstr">     43.67995412 </i>
    <i name="atom">   1641.21197842 </i>
    <i name="e_fr_energy">    -91.94585672 </i>
    <i name="e_wo_entrp">    -91.94585672 </i>
    <i name="e_0_energy">    -91.94585672 </i>
   </energy>
  </scstep>
  <structure>
   <crystal>
    <varray name="basis" >
     <v>       0.00000000       5.43581180       5.43581180 </v>
     <v>       5.43581180       0.00000000       5.43581180 </v>
     <v>       5.43581180       5.43581180       0.00000000 </v>
    </varray>
    <i name="volume">    321.23527682 </i>
    <varray name="rec_basis" >
     <v>      -0.09198258       0.09198258       0.09198258 </v>
     <v>       0.09198258      -0.09198258       0.09198258 </v>
     <v>       0.09198258       0.09198258      -0.09198258 </v>
    </varray>
   </crystal>
   <varray name="positions" >
    <v>       0.12496623       0.12487145       0.12455841 </v>
    <v>       0.62496580       0.12487118       0.12455853 </v>
    <v>       0.12496585       0.62487139       0.12455844 </v>
    <v>       0.62496611       0.62487057       0.12455861 </v>
    <v>       0.12496594       0.12487110       0.62455893 </v>
    <v>       0.62496612       0.12487094       0.62455871 </v>
    <v>       0.12496598       0.62487143       0.62455816 </v>
    <v>       0.62496605       0.62487127       0.62455827 </v>
    <v>      -0.00003413       0.99987133       0.99955893 </v>
    <v>       0.49996614      -0.00012923       0.99955865 </v>
    <v>      -0.00003405       0.49987151       0.99955816 </v>
    <v>       0.49996584       0.49987115      -0.00044172 </v>
    <v>      -0.00003396       0.99987141       0.49955845 </v>
    <v>       0.49996600      -0.00012884       0.49955856 </v>
    <v>      -0.00003379       0.49987097       0.49955849 </v>
    <v>       0.49996609       0.49987101       0.49955854 </v>
   </varray>
  </structure>
  <varray name="forces" >
   <v>       0.00000812      -0.00000302      -0.00000457 </v>
   <v>      -0.00000062       0.00000834       0.00000217 </v>
   <v>      -0.00000309       0.00000226      -0.00000561 </v>
   <v>       0.00001264      -0.00001781       0.00000852 </v>
   <v>      -0.00001049       0.00000164      -0.00000226 </v>
   <v>       0.00000153      -0.00000878       0.00000114 </v>
   <v>      -0.00000008       0.00001093       0.00000530 </v>
   <v>      -0.00000747       0.00001260       0.00000012 </v>
   <v>      -0.00000106      -0.00000773      -0.00000120 </v>
   <v>      -0.00000708       0.00000831      -0.00000595 </v>
   <v>      -0.00000666       0.00001298       0.00000249 </v>
   <v>       0.00000198       0.00000197       0.00000093 </v>
   <v>      -0.00000173       0.00000495       0.00000650 </v>
   <v>       0.00000621      -0.00000568       0.00000249 </v>
   <v>       0.00000760      -0.00001785      -0.00000073 </v>
   <v>       0.00000020      -0.00000311      -0.00000935 </v>
  </varray>
  <varray name="stress" >
   <v>      -0.02172994       0.00002593       0.00003158 </v>
   <v>       0.00002597      -0.02173037       0.00000757 </v>
   <v>       0.00003156       0.00000757      -0.02173188 </v>
  </varray>
  <energy>
   <i name="e_fr_energy">    -91.94585672 </i>
   <i name="e_wo_entrp">    -91.94585672 </i>
   <i name="e_0_energy">    -91.94585672 </i>
  </energy>
  <time name="totalsc">   17.73   17.83</time>
 </calculation>
 <calculation>
  <scstep>
   <time name="dav">    2.86    2.86</time>
   <time name="total">    3.20    3.20</time>
   <energy>
    <i name="alphaZ">     26.82694619 </i>
    <i name="ewald">  -1826.55336167 </i>
    <i name="hartreedc">   -117.12729795 </i>
    <i name="XCdc">   -134.89721701 </i>
    <i name="pawpsdc">   6908.00490719 </i>
    <i name="pawaedc">  -6633.09176601 </i>
    <i name="eentropy">     -0.00000000 </i>
    <i name="bandstr">     43.67995412 </i>
    <i name="atom">   1641.21197842 </i>
    <i name="e_fr_energy">    -91.94585672 </i>
    <i name="e_wo_entrp">    -91.94585672 </i>
    <i name="e_0_energy">    -91.94585672 </i>
   </energy>
  </scstep>
  <scstep>
   <time name="diag">    1.47    1.47</time>
   <time name="diis">    0.68    0.68</time>
   <time name="orth">    0.09    0.09</time>
   <time name="total">    2.60    2.62</time>
   <energy>
    <i name="e_fr_energy">    -91.94585672 </i>
    <i name="e_wo_entrp">    -91.94585672 </i>
    <i name="e_0_energy">    -91.94585672 </i>
   </energy>
  </scstep>
  <scstep>
   <time name="diag">    1.47    1.47</time>
   <time name="diis">    0.66    0.66</time>
   <time name="orth">    0.09    0.09</time>
   <time name="total">    2.59    2.60</time>
   <energy>
    <i name="e_fr_energy">    -91.94585672 </i>
    <i name="e_wo_entrp">    -91.94585672 </i>
    <i name="e_0_energy">    -91.94585672 </i>
   </energy>
  </scstep>
  <scstep>
   <time name="diag">    1.47    1.47</time>
   <time name="diis">    0.66    0.66</time>
   <time name="orth">    0.09    0.09</time>
   <time name="total">    2.58    2.60</time>
   <energy>
    <i name="e_fr_energy">    -91.94585672 </i>
    <i name="e_wo_entrp">    -91.94585672 </i>
    <i name="e_0_energy">    -91.94585672 </i>
   </energy>
  </scstep>
  <scstep>
   <time name="diag">    1.47    1.47</time>
   <time name="diis">    0.66    0.66</time>
   <time name="orth">    0.09    0.09</time>
   <time name="total">    2.34    2.35</time>
   <energy>
    <i name="alphaZ">     26.82694619 </i>
    <i name="ewald">  -1826.55336167 </i>
    <i name="hartreedc">   -117.12729823 </i>
    <i name="XCdc">   -134.89721699 </i>
    <i name="pawpsdc">   6908.00487802 </i>
    <i name="pawaedc">  -6633.09173686 </i>
    <i name="eentropy">     -0.00000000 </i>
    <i name="bandstr">     43.67995438 </i>
    <i name="atom">   1641.21197842 </i>
    <i name="e_fr_energy">    -91.94585672 </i>
    <i name="e_wo_entrp">    -91.94585672 </i>
    <i name="e_0_energy">    -91.94585672 </i>
   </energy>
  </scstep>
  <structure>
   <crystal>
    <varray name="basis" >
     <v>       0.00000000       5.43581180       5.43581180 </v>
     <v>       5.43581180       0.00000000       5.43581180 </v>
     <v>       5.43581180       5.43581180       0.00000000 </v>
    </varray>
    <i name="volume">    321.23527682 </i>
    <varray name="rec_basis" >
     <v>      -0.09198258       0.09198258       0.09198258 </v>
     <v>       0.09198258      -0.09198258       0.09198258 </v>
     <v>       0.09198258       0.09198258      -0.09198258 </v>
    </varray>
   </crystal>
   <varray name="positions" >
    <v>       0.12496622       0.12487146       0.12455843 </v>
    <v>       0.62496580       0.12487115       0.12455856 </v>
    <v>       0.12496583       0.62487140       0.12455842 </v>
    <v>       0.62496610       0.62487059       0.12455856 </v>
    <v>       0.12496594       0.12487111       0.62455894 </v>
    <v>       0.62496613       0.12487093       0.62455872 </v>
    <v>       0.12496601       0.62487144       0.62455815 </v>
    <v>       0.62496606       0.62487123       0.62455826 </v>
    <v>      -0.00003415       0.99987136       0.99955894 </v>
    <v>       0.49996613      -0.00012927       0.99955869 </v>
    <v>      -0.00003403       0.49987150       0.99955815 </v>
    <v>       0.49996582       0.49987114      -0.00044172 </v>
    <v>      -0.00003392       0.99987142       0.49955844 </v>
    <v>       0.49996599      -0.00012884       0.49955858 </v>
    <v>      -0.00003382       0.49987102       0.49955845 </v>
    <v>       0.49996609       0.49987099       0.49955851 </v>
   </varray>
  </structure>
  <varray name="forces" >
   <v>       0.00000140      -0.00000395      -0.00000630 </v>
   <v>       0.00000135       0.00000446       0.00000369 </v>
   <v>      -0.00000156       0.00000546      -0.00000242 </v>
   <v>       0.00000957      -0.00000851       0.00000380 </v>
   <v>      -0.00000800      -0.00000021      -0.00000006 </v>
   <v>       0.00000065      -0.00000940       0.00000147 </v>
   <v>      -0.00000196       0.00000586       0.00000004 </v>
   <v>      -0.00000187       0.00000748       0.00000084 </v>
   <v>      -0.00000534      -0.00000699      -0.00000148 </v>
   <v>      -0.00000445       0.00000277       0.00000264 </v>
   <v>      -0.00000283       0.00000661       0.00000080 </v>
   <v>       0.00000098       0.00000301       0.00000352 </v>
   <v>      -0.00000023       0.00000199      -0.00000254 </v>
   <v>       0.00000286      -0.00000184       0.00000261 </v>
   <v>       0.00000637      -0.00000801      -0.00000202 </v>
   <v>       0.00000305       0.00000127      -0.00000460 </v>
  </varray>
  <varray name="stress" >
   <v>      -0.02172759       0.00000801       0.00000711 </v>
   <v>       0.00000802      -0.02172821       0.00000340 </v>
   <v>       0.00000711       0.00000344      -0.02172980 </v>
  </varray>
  <energy>
   <i name="e_fr_energy">    -91.94585672 </i>
   <i name="e_wo_entrp">    -91.94585672 </i>
   <i name="e_0_energy">    -91.94585672 </i>
  </energy>
  <time name="totalsc">   17.65   18.60</time>
 </calculation>
 <calculation>
  <scstep>
   <time name="dav">    2.85    2.85</time>
   <time name="total">    3.20    3.20</time>
   <energy>
    <i name="alphaZ">     26.82694619 </i>
    <i name="ewald">  -1826.55336167 </i>
    <i name="hartreedc">   -117.12729822 </i>
    <i name="XCdc">   -134.89721699 </i>
    <i name="pawpsdc">   6908.00487802 </i>
    <i name="pawaedc">  -6633.09173685 </i>
    <i name="eentropy">     -0.00000000 </i>
    <i name="bandstr">     43.67995438 </i>
    <i name="atom">   1641.21197842 </i>
    <i name="e_fr_energy">    -91.94585672 </i>
    <i name="e_wo_entrp">    -91.94585672 </i>
    <i name="e_0_energy">    -91.94585672 </i>
   </energy>
  </scstep>
  <scstep>
   <time name="diag">    1.47    1.47</time>
   <time name="diis">    0.88    0.88</time>
   <time name="orth">    0.09    0.09</time>
   <time name="total">    2.81    2.82</time>
   <energy>
    <i name="e_fr_energy">    -91.94585672 </i>
    <i name="e_wo_entrp">    -91.94585672 </i>
    <i name="e_0_energy">    -91.94585672 </i>
   </energy>
  </scstep>
  <scstep>
   <time name="diag">    1.47    1.47</time>
   <time name="diis">    0.72    0.72</time>
   <time name="orth">    0.09    0.09</time>
   <time name="total">    2.64    2.66</time>
   <energy>
    <i name="e_fr_energy">    -91.94585672 </i>
    <i name="e_wo_entrp">    -91.94585672 </i>
    <i name="e_0_energy">    -91.94585672 </i>
   </energy>
  </scstep>
  <scstep>
   <time name="diag">    1.48    1.48</time>
   <time name="diis">    0.87    0.87</time>
   <time name="orth">    0.10    0.10</time>
   <time name="total">    2.85    2.87</time>
   <energy>
    <i name="e_fr_energy">    -91.94585672 </i>
    <i name="e_wo_entrp">    -91.94585672 </i>
    <i name="e_0_energy">    -91.94585672 </i>
   </energy>
  </scstep>
  <scstep>
   <time name="diag">    1.47    1.47</time>
   <time name="diis">    0.66    0.66</time>
   <time name="orth">    0.09    0.09</time>
   <time name="total">    2.34    2.35</time>
   <energy>
    <i name="alphaZ">     26.82694619 </i>
    <i name="ewald">  -1826.55336167 </i>
    <i name="hartreedc">   -117.12729794 </i>
    <i name="XCdc">   -134.89721700 </i>
    <i name="pawpsdc">   6908.00493115 </i>
    <i name="pawaedc">  -6633.09178998 </i>
    <i name="eentropy">     -0.00000000 </i>
    <i name="bandstr">     43.67995411 </i>
    <i name="atom">   1641.21197842 </i>
    <i name="e_fr_energy">    -91.94585672 </i>
    <i name="e_wo_entrp">    -91.94585672 </i>
    <i name="e_0_energy">    -91.94585672 </i>
   </energy>
  </scstep>
  <structure>
   <crystal>
    <varray name="basis" >
     <v>       0.00000000       5.43581180       5.43581180 </v>
     <v>       5.43581180       0.00000000       5.43581180 </v>
     <v>       5.43581180       5.43581180       0.00000000 </v>
    </varray>
    <i name="volume">    321.23527682 </i>
    <varray name="rec_basis" >
     <v>      -0.09198258       0.09198258       0.09198258 </v>
     <v>       0.09198258      -0.09198258       0.09198258 </v>
     <v>       0.09198258       0.09198258      -0.09198258 </v>
    </varray>
   </crystal>
   <varray name="positions" >
    <v>       0.12496613       0.12487138       0.12455838 </v>
    <v>       0.62496587       0.12487128       0.12455846 </v>
    <v>       0.12496596       0.62487125       0.12455855 </v>
    <v>       0.62496599       0.62487072       0.12455871 </v>
    <v>       0.12496602       0.12487097       0.62455882 </v>
    <v>       0.62496600       0.12487112       0.62455856 </v>
    <v>       0.12496598       0.62487131       0.62455823 </v>
    <v>       0.62496613       0.62487130       0.62455832 </v>
    <v>      -0.00003412       0.99987126       0.99955877 </v>
    <v>       0.49996626      -0.00012918       0.99955852 </v>
    <v>      -0.00003402       0.49987145       0.99955822 </v>
    <v>       0.49996595       0.49987122      -0.00044173 </v>
    <v>      -0.00003408       0.99987131       0.49955850 </v>
    <v>       0.49996603      -0.00012875       0.49955848 </v>
    <v>      -0.00003390       0.49987096       0.49955858 </v>
    <v>       0.49996602       0.49987104       0.49955872 </v>
   </varray>
  </structure>
  <varray name="forces" >
   <v>       0.00000497       0.00000969       0.00000593 </v>
   <v>      -0.00000715       0.00000321      -0.00000529 </v>
   <v>      -0.00000331      -0.00001150      -0.00000344 </v>
   <v>      -0.00000081      -0.00000378       0.00001212 </v>
   <v>       0.00000193      -0.00000642      -0.00000133 </v>
   <v>       0.00000109       0.00001220      -0.00000148 </v>
   <v>       0.00000943       0.00000765       0.00000557 </v>
   <v>      -0.00000230      -0.00000131      -0.00000556 </v>
   <v>       0.00000416       0.00000581       0.00000086 </v>
   <v>       0.00001079      -0.00000286      -0.00001649 </v>
   <v>      -0.00000061       0.00000866      -0.00000412 </v>
   <v>       0.00000596       0.00000106      -0.00000645 </v>
   <v>      -0.00000757       0.00000189       0.00001726 </v>
   <v>      -0.00000190      -0.00000518      -0.00000447 </v>
   <v>      -0.00000862      -0.00000525       0.00000463 </v>
   <v>      -0.00000607      -0.00001387       0.00000225 </v>
  </varray>
  <varray name="stress" >
   <v>      -0.02173026       0.00003107       0.00004218 </v>
   <v>       0.00003111      -0.02173027       0.00001928 </v>
   <v>       0.00004216       0.00001928      -0.02173220 </v>
  </varray>
  <energy>
   <i name="e_fr_energy">    -91.94585672 </i>
   <i name="e_wo_entrp">    -91.94585672 </i>
   <i name="e_0_energy">    -91.94585672 </i>
  </energy>
  <time name="totalsc">   18.17   18.80</time>
 </calculation>
