 ----------------------------------------------------
    OOO  PPPP  EEEEE N   N M   M PPPP
   O   O P   P E     NN  N MM MM P   P
   O   O PPPP  EEEEE N N N M M M PPPP   -- VERSION
   O   O P     E     N  NN M   M P
    OOO  P     EEEEE N   N M   M P
 ----------------------------------------------------
 running  128 mpi-ranks, with    1 threads/rank
 distrk:  each k-point on  128 cores,    1 groups
 distr:  one band on   16 cores,    8 groups
 vasp.6.3.0 20Jan22 (build Feb 21 2022 11:18:28) complex                         
 POSCAR found type information on POSCAR Si
 POSCAR found :  1 types and      16 ions
 Reading from existing POTCAR
 scaLAPACK will be used
 Reading from existing POTCAR
 -----------------------------------------------------------------------------
|                                                                             |
|               ----> ADVICE to this user running VASP <----                  |
|                                                                             |
|     You enforced a specific xc type in the INCAR file but a different       |
|     type was found in the POTCAR file.                                      |
|     I HOPE YOU KNOW WHAT YOU ARE DOING!                                     |
|                                                                             |
 -----------------------------------------------------------------------------

 LDA part: xc-table for Pade appr. of Perdew
 POSCAR, INCAR and KPOINTS ok, starting setup
 FFT: planning ... GRIDC
 FFT: planning ... GRID_SOFT
 FFT: planning ... GRID
 WAVECAR not read
 WARNING: random wavefunctions but no delay for mixing, default for NELMDL
 entering main loop
       N       E                     dE             d eps       ncg     rms          rms(c)
DAV:   1     0.155052769902E+03    0.15505E+03   -0.26215E+04 10752   0.123E+03
DAV:   2    -0.797915507312E+02   -0.23484E+03   -0.21777E+03 13264   0.169E+02
DAV:   3    -0.934356100820E+02   -0.13644E+02   -0.13419E+02 13856   0.362E+01
DAV:   4    -0.937073441056E+02   -0.27173E+00   -0.27029E+00 13600   0.627E+00
DAV:   5    -0.937143073886E+02   -0.69633E-02   -0.69595E-02 13272   0.945E-01    0.140E+01
RMM:   6    -0.924894784445E+02    0.12248E+01   -0.54432E-01 10752   0.201E+00    0.842E+00
RMM:   7    -0.919282967711E+02    0.56118E+00   -0.12876E+00 10753   0.318E+00    0.463E-01
RMM:   8    -0.919382773022E+02   -0.99805E-02   -0.11814E-01 10791   0.118E+00    0.249E-01
RMM:   9    -0.919416808208E+02   -0.34035E-02   -0.35162E-02 10911   0.579E-01    0.271E-01
RMM:  10    -0.919422374876E+02   -0.55667E-03   -0.60554E-03 10936   0.287E-01    0.279E-01
RMM:  11    -0.919413785739E+02    0.85891E-03   -0.20889E-03 10752   0.176E-01    0.121E+00
RMM:  12    -0.919423236673E+02   -0.94509E-03   -0.19966E-03 10752   0.178E-01    0.225E-01
RMM:  13    -0.919423988499E+02   -0.75183E-04   -0.18022E-04 10806   0.553E-02    0.508E-02
RMM:  14    -0.919424025557E+02   -0.37058E-05   -0.52841E-05 11004   0.284E-02    0.322E-02
RMM:  15    -0.919424009561E+02    0.15996E-05   -0.90082E-06 10755   0.125E-02    0.797E-03
RMM:  16    -0.919424022773E+02   -0.13212E-05   -0.22939E-06 11237   0.594E-03    0.125E-02
RMM:  17    -0.919424021033E+02    0.17399E-06   -0.75306E-07 10752   0.348E-03    0.306E-03
RMM:  18    -0.919424023003E+02   -0.19694E-06   -0.17058E-07 10393   0.154E-03    0.108E-03
RMM:  19    -0.919424022717E+02    0.28579E-07   -0.27628E-08  8049   0.646E-04    0.712E-04
RMM:  20    -0.919424022749E+02   -0.31932E-08   -0.11633E-08  7359   0.347E-04
   1 F= -.91942402E+02 E0= -.91942402E+02  d E =-.919424E+02
 curvature:   0.00 expect dE= 0.000E+00 dE for cont linesearch  0.000E+00
 trial: gam= 0.00000 g(F)=  0.704E-02 g(S)=  0.000E+00 ort = 0.000E+00 (trialstep = 0.100E+01)
 search vector abs. value=  0.704E-02
 bond charge predicted
       N       E                     dE             d eps       ncg     rms          rms(c)
DAV:   1    -0.919451056736E+02   -0.27034E-02   -0.91365E-02 12624   0.101E+00    0.147E-01
RMM:   2    -0.919456359938E+02   -0.53032E-03   -0.59294E-03 10752   0.289E-01    0.563E-02
RMM:   3    -0.919456889083E+02   -0.52915E-04   -0.88080E-04 10780   0.133E-01    0.243E-02
RMM:   4    -0.919456906650E+02   -0.17567E-05   -0.14615E-04 10953   0.565E-02    0.970E-03
RMM:   5    -0.919456927981E+02   -0.21331E-05   -0.30422E-05 11481   0.241E-02    0.311E-03
RMM:   6    -0.919456933699E+02   -0.57182E-06   -0.58739E-06 11348   0.997E-03    0.111E-03
RMM:   7    -0.919456934633E+02   -0.93368E-07   -0.10352E-06 11284   0.401E-03    0.343E-04
RMM:   8    -0.919456934854E+02   -0.22107E-07   -0.23828E-07  9907   0.183E-03    0.235E-04
RMM:   9    -0.919456934893E+02   -0.39636E-08   -0.49728E-08  8751   0.820E-04
   2 F= -.91945693E+02 E0= -.91945693E+02  d E =-.329121E-02
 trial-energy change:   -0.003291  1 .order   -0.003291   -0.007039    0.000456
 step:   0.9391(harm=  0.9391)  dis= 0.00532  next Energy=   -91.945707 (dE=-0.331E-02)
 bond charge predicted
       N       E                     dE             d eps       ncg     rms          rms(c)
DAV:   1    -0.919457052025E+02   -0.11717E-04   -0.33772E-04 13424   0.616E-02    0.893E-03
RMM:   2    -0.919457071119E+02   -0.19094E-05   -0.21470E-05 10752   0.175E-02    0.343E-03
RMM:   3    -0.919457072904E+02   -0.17853E-06   -0.30756E-06 10759   0.801E-03    0.148E-03
RMM:   4    -0.919457072941E+02   -0.36916E-08   -0.49550E-07 10910   0.340E-03    0.597E-04
RMM:   5    -0.919457073008E+02   -0.66721E-08   -0.99252E-08 11045   0.143E-03
   3 F= -.91945707E+02 E0= -.91945707E+02  d E =-.330503E-02
 curvature:  -0.47 expect dE=-0.919E-04 dE for cont linesearch -0.486E-09
 trial: gam= 0.02742 g(F)=  0.196E-03 g(S)=  0.000E+00 ort = 0.270E-05 (trialstep = 0.988E+00)
 search vector abs. value=  0.201E-03
 bond charge predicted
       N       E                     dE             d eps       ncg     rms          rms(c)
DAV:   1    -0.919457982395E+02   -0.90945E-04   -0.22701E-03 12608   0.162E-01    0.260E-02
RMM:   2    -0.919458103874E+02   -0.12148E-04   -0.15144E-04 10752   0.472E-02    0.931E-03
RMM:   3    -0.919458119268E+02   -0.15394E-05   -0.23287E-05 10754   0.215E-02    0.416E-03
RMM:   4    -0.919458120939E+02   -0.16703E-06   -0.37629E-06 10994   0.911E-03    0.182E-03
RMM:   5    -0.919458121429E+02   -0.49068E-07   -0.80055E-07 11237   0.410E-03    0.468E-04
RMM:   6    -0.919458121593E+02   -0.16402E-07   -0.16556E-07 10822   0.177E-03    0.238E-04
RMM:   7    -0.919458121629E+02   -0.35470E-08   -0.27866E-08  8199   0.712E-04
   4 F= -.91945812E+02 E0= -.91945812E+02  d E =-.104862E-03
 trial-energy change:   -0.000105  1 .order   -0.000105   -0.000193   -0.000016
 step:   1.0778(harm=  1.0778)  dis= 0.00107  next Energy=   -91.945813 (dE=-0.106E-03)
 bond charge predicted
       N       E                     dE             d eps       ncg     rms          rms(c)
DAV:   1    -0.919458128008E+02   -0.64148E-06   -0.18974E-05 14136   0.148E-02    0.240E-03
RMM:   2    -0.919458129069E+02   -0.10611E-06   -0.12871E-06 10752   0.436E-03    0.853E-04
RMM:   3    -0.919458129198E+02   -0.12853E-07   -0.20058E-07 10757   0.201E-03    0.380E-04
RMM:   4    -0.919458129207E+02   -0.92496E-09   -0.32483E-08  8698   0.852E-04    0.169E-04
RMM:   5    -0.919458129210E+02   -0.31650E-09   -0.69084E-09  6703   0.387E-04
   5 F= -.91945813E+02 E0= -.91945813E+02  d E =-.105620E-03
 curvature:  -0.55 expect dE=-0.495E-05 dE for cont linesearch -0.592E-10
 trial: gam= 0.04491 g(F)=  0.894E-05 g(S)=  0.000E+00 ort = 0.147E-06 (trialstep = 0.101E+01)
 search vector abs. value=  0.936E-05
 bond charge predicted
       N       E                     dE             d eps       ncg     rms          rms(c)
DAV:   1    -0.919458195806E+02   -0.66598E-05   -0.80766E-05 12160   0.311E-02    0.400E-03
RMM:   2    -0.919458198773E+02   -0.29676E-06   -0.36040E-06 10752   0.747E-03    0.177E-03
RMM:   3    -0.919458199077E+02   -0.30398E-07   -0.58047E-07 10787   0.346E-03    0.748E-04
RMM:   4    -0.919458199118E+02   -0.40445E-08   -0.99573E-08 10856   0.150E-03    0.311E-04
RMM:   5    -0.919458199130E+02   -0.12524E-08   -0.17825E-08  7288   0.645E-04
   6 F= -.91945820E+02 E0= -.91945820E+02  d E =-.699198E-05
 trial-energy change:   -0.000007  1 .order   -0.000007   -0.000009   -0.000005
 step:   2.2276(harm=  2.2276)  dis= 0.00049  next Energy=   -91.945823 (dE=-0.996E-05)
 bond charge predicted
       N       E                     dE             d eps       ncg     rms          rms(c)
DAV:   1    -0.919458224959E+02   -0.25841E-05   -0.11947E-04 12216   0.378E-02    0.488E-03
RMM:   2    -0.919458229430E+02   -0.44716E-06   -0.54112E-06 10752   0.915E-03    0.215E-03
RMM:   3    -0.919458229895E+02   -0.46477E-07   -0.87430E-07 10788   0.425E-03    0.922E-04
RMM:   4    -0.919458229956E+02   -0.60490E-08   -0.15059E-07 10866   0.184E-03    0.382E-04
RMM:   5    -0.919458229976E+02   -0.19963E-08   -0.27713E-08  8041   0.793E-04
   7 F= -.91945823E+02 E0= -.91945823E+02  d E =-.100765E-04
 curvature:  -1.17 expect dE=-0.134E-04 dE for cont linesearch -0.234E-09
 trial: gam= 1.28500 g(F)=  0.115E-04 g(S)=  0.000E+00 ort = 0.434E-07 (trialstep = 0.432E+00)
 search vector abs. value=  0.271E-04
 bond charge predicted
       N       E                     dE             d eps       ncg     rms          rms(c)
DAV:   1    -0.919458277410E+02   -0.47455E-05   -0.33269E-05 12280   0.204E-02    0.205E-03
RMM:   2    -0.919458277940E+02   -0.52949E-07   -0.82460E-07 10752   0.386E-03    0.119E-03
RMM:   3    -0.919458277990E+02   -0.50550E-08   -0.17508E-07 10799   0.190E-03    0.300E-04
RMM:   4    -0.919458278026E+02   -0.35598E-08   -0.34723E-08  8271   0.844E-04    0.176E-04
RMM:   5    -0.919458278028E+02   -0.22737E-09   -0.54808E-09  6939   0.342E-04
   8 F= -.91945828E+02 E0= -.91945828E+02  d E =-.480526E-05
 ZBRENT: can't locate minimum, use default step
 trial-energy change:   -0.000005  1 .order   -0.000005   -0.000005   -0.000005
 step:   1.7280(harm=  4.9554)  dis= 0.00067  next Energy=   -91.945852 (dE=-0.287E-04)
 bond charge predicted
       N       E                     dE             d eps       ncg     rms          rms(c)
DAV:   1    -0.919458390385E+02   -0.11236E-04   -0.29809E-04 11568   0.612E-02    0.614E-03
RMM:   2    -0.919458395000E+02   -0.46151E-06   -0.73620E-06 10752   0.115E-02    0.357E-03
RMM:   3    -0.919458395368E+02   -0.36848E-07   -0.15641E-06 10800   0.568E-03    0.895E-04
RMM:   4    -0.919458395680E+02   -0.31211E-07   -0.30791E-07 10937   0.251E-03    0.513E-04
RMM:   5    -0.919458395704E+02   -0.24002E-08   -0.49557E-08 10312   0.108E-03
   9 F= -.91945840E+02 E0= -.91945840E+02  d E =-.165729E-04
 curvature:  -2.85 expect dE=-0.148E-04 dE for cont linesearch -0.580E-05
 ZBRENT: increasing intervall
 opt :   4.3199  next Energy=   -91.945851 (dE=-0.277E-04)
 bond charge predicted
       N       E                     dE             d eps       ncg     rms          rms(c)
DAV:   1    -0.919458490784E+02   -0.95104E-05   -0.11928E-03 11232   0.122E-01    0.123E-02
RMM:   2    -0.919458509244E+02   -0.18460E-05   -0.29473E-05 10752   0.231E-02    0.714E-03
RMM:   3    -0.919458510683E+02   -0.14382E-06   -0.62621E-06 10802   0.114E-02    0.179E-03
RMM:   4    -0.919458511928E+02   -0.12450E-06   -0.12293E-06 10934   0.503E-03    0.102E-03
RMM:   5    -0.919458512031E+02   -0.10313E-07   -0.20155E-07 10917   0.216E-03    0.354E-04
RMM:   6    -0.919458512066E+02   -0.35179E-08   -0.45505E-08  9850   0.101E-03
  10 F= -.91945851E+02 E0= -.91945851E+02  d E =-.282090E-04
 curvature:  -5.46 expect dE=-0.210E-04 dE for cont linesearch -0.360E-06
 ZBRENT: extrapolating
 opt :   4.8891  next Energy=   -91.945852 (dE=-0.286E-04)
 bond charge predicted
       N       E                     dE             d eps       ncg     rms          rms(c)
DAV:   1    -0.919458515319E+02   -0.32879E-06   -0.57969E-05 12704   0.269E-02    0.268E-03
RMM:   2    -0.919458516239E+02   -0.91995E-07   -0.14402E-06 10752   0.510E-03    0.156E-03
RMM:   3    -0.919458516314E+02   -0.74961E-08   -0.30318E-07 10800   0.251E-03    0.400E-04
RMM:   4    -0.919458516375E+02   -0.61036E-08   -0.60094E-08 10556   0.111E-03    0.229E-04
RMM:   5    -0.919458516380E+02   -0.51205E-09   -0.96118E-09  7079   0.470E-04
  11 F= -.91945852E+02 E0= -.91945852E+02  d E =-.286404E-04
 curvature:  -5.76 expect dE=-0.277E-04 dE for cont linesearch -0.134E-09
 trial: gam= 0.44715 g(F)=  0.481E-05 g(S)=  0.000E+00 ort = 0.251E-07 (trialstep = 0.132E+01)
 search vector abs. value=  0.102E-04
 bond charge predicted
       N       E                     dE             d eps       ncg     rms          rms(c)
DAV:   1    -0.919458538682E+02   -0.22308E-05   -0.15597E-04 11664   0.431E-02    0.575E-03
RMM:   2    -0.919458544458E+02   -0.57763E-06   -0.75086E-06 10752   0.108E-02    0.249E-03
RMM:   3    -0.919458544910E+02   -0.45196E-07   -0.12209E-06 10780   0.499E-03    0.107E-03
RMM:   4    -0.919458544990E+02   -0.79208E-08   -0.21551E-07 10838   0.216E-03    0.461E-04
RMM:   5    -0.919458545021E+02   -0.31787E-08   -0.38662E-08  9011   0.928E-04
  12 F= -.91945855E+02 E0= -.91945855E+02  d E =-.286417E-05
 trial-energy change:   -0.000003  1 .order   -0.000003   -0.000006    0.000001
 step:   1.1873(harm=  1.1815)  dis= 0.00031  next Energy=   -91.945855 (dE=-0.290E-05)
 bond charge predicted
       N       E                     dE             d eps       ncg     rms          rms(c)
DAV:   1    -0.919458545305E+02   -0.31529E-07   -0.15986E-06 13480   0.443E-03    0.594E-04
RMM:   2    -0.919458545360E+02   -0.55325E-08   -0.73955E-08 10654   0.105E-03    0.262E-04
RMM:   3    -0.919458545362E+02   -0.19463E-09   -0.11059E-08  6159   0.469E-04    0.108E-04
RMM:   4    -0.919458545362E+02   -0.16371E-10   -0.15462E-09  5912   0.182E-04    0.468E-05
RMM:   5    -0.919458545362E+02    0.19099E-10   -0.72622E-11  2257   0.813E-05
  13 F= -.91945855E+02 E0= -.91945855E+02  d E =-.289824E-05
 curvature:  -1.25 expect dE=-0.627E-06 dE for cont linesearch -0.168E-09
 trial: gam= 0.10407 g(F)=  0.500E-06 g(S)=  0.000E+00 ort = 0.371E-07 (trialstep = 0.130E+01)
 search vector abs. value=  0.619E-06
 bond charge predicted
       N       E                     dE             d eps       ncg     rms          rms(c)
DAV:   1    -0.919458550206E+02   -0.48435E-06   -0.74843E-06 11824   0.974E-03    0.135E-03
RMM:   2    -0.919458550402E+02   -0.19594E-07   -0.33515E-07 10752   0.225E-03    0.582E-04
RMM:   3    -0.919458550413E+02   -0.11332E-08   -0.62541E-08 10786   0.106E-03    0.262E-04
RMM:   4    -0.919458550414E+02   -0.57298E-10   -0.11538E-08  6977   0.473E-04    0.103E-04
RMM:   5    -0.919458550414E+02   -0.89130E-10   -0.22325E-09  6622   0.209E-04
  14 F= -.91945855E+02 E0= -.91945855E+02  d E =-.505240E-06
 trial-energy change:   -0.000001  1 .order   -0.000001   -0.000001   -0.000000
 step:   2.8201(harm=  2.8201)  dis= 0.00016  next Energy=   -91.945855 (dE=-0.710E-06)
 bond charge predicted
       N       E                     dE             d eps       ncg     rms          rms(c)
DAV:   1    -0.919458552315E+02   -0.19012E-06   -0.10407E-05 11952   0.115E-02    0.158E-03
RMM:   2    -0.919458552593E+02   -0.27778E-07   -0.46680E-07 10752   0.266E-03    0.684E-04
RMM:   3    -0.919458552612E+02   -0.19309E-08   -0.87752E-08 10791   0.126E-03    0.309E-04
RMM:   4    -0.919458552614E+02   -0.20464E-09   -0.16272E-08  7168   0.561E-04    0.121E-04
RMM:   5    -0.919458552615E+02   -0.13461E-09   -0.30975E-09  6852   0.248E-04
  15 F= -.91945855E+02 E0= -.91945855E+02  d E =-.725316E-06
 curvature:  -1.73 expect dE=-0.801E-06 dE for cont linesearch -0.110E-09
 trial: gam= 0.91632 g(F)=  0.462E-06 g(S)=  0.000E+00 ort = 0.627E-08 (trialstep = 0.997E+00)
 search vector abs. value=  0.993E-06
 bond charge predicted
       N       E                     dE             d eps       ncg     rms          rms(c)
DAV:   1    -0.919458556795E+02   -0.41815E-06   -0.66025E-06 11936   0.906E-03    0.926E-04
RMM:   2    -0.919458556909E+02   -0.11326E-07   -0.17673E-07 10752   0.177E-03    0.532E-04
RMM:   3    -0.919458556920E+02   -0.11214E-08   -0.36695E-08  8713   0.864E-04    0.153E-04
RMM:   4    -0.919458556927E+02   -0.68121E-09   -0.68290E-09  6505   0.378E-04    0.814E-05
RMM:   5    -0.919458556927E+02   -0.80945E-10   -0.12913E-09  6241   0.162E-04
  16 F= -.91945856E+02 E0= -.91945856E+02  d E =-.431223E-06
 ZBRENT: can't locate minimum, use default step
 trial-energy change:   -0.000000  1 .order   -0.000000   -0.000000   -0.000000
 step:   3.9886(harm=  5.8563)  dis= 0.00026  next Energy=   -91.945857 (dE=-0.137E-05)
 bond charge predicted
       N       E                     dE             d eps       ncg     rms          rms(c)
DAV:   1    -0.919458563966E+02   -0.70397E-06   -0.59263E-05 11360   0.272E-02    0.277E-03
RMM:   2    -0.919458564973E+02   -0.10069E-06   -0.15784E-06 10752   0.528E-03    0.159E-03
RMM:   3    -0.919458565064E+02   -0.90959E-08   -0.32598E-07 10804   0.258E-03    0.447E-04
RMM:   4    -0.919458565126E+02   -0.62291E-08   -0.64526E-08 10730   0.115E-03    0.235E-04
RMM:   5    -0.919458565132E+02   -0.60027E-09   -0.10515E-08  7125   0.492E-04
  17 F= -.91945857E+02 E0= -.91945857E+02  d E =-.125172E-05
 curvature:  -5.30 expect dE=-0.451E-06 dE for cont linesearch -0.111E-06
 ZBRENT: increasing intervall
 opt :   9.9715  next Energy=   -91.945856 (dE=-0.652E-06)
 bond charge predicted
       N       E                     dE             d eps       ncg     rms          rms(c)
DAV:   1    -0.919458555610E+02    0.95167E-06   -0.23718E-04 11264   0.543E-02    0.554E-03
RMM:   2    -0.919458559643E+02   -0.40331E-06   -0.63206E-06 10752   0.106E-02    0.318E-03
RMM:   3    -0.919458560003E+02   -0.35961E-07   -0.13067E-06 10805   0.517E-03    0.895E-04
RMM:   4    -0.919458560252E+02   -0.24904E-07   -0.25876E-07 10915   0.231E-03    0.468E-04
RMM:   5    -0.919458560276E+02   -0.24247E-08   -0.42329E-08  9695   0.989E-04
  18 F= -.91945856E+02 E0= -.91945856E+02  d E =-.766054E-06
 curvature:  28.69 expect dE= 0.165E-04 dE for cont linesearch  0.333E-05
 ZBRENT: bracketing found
 ZBRENT: interpolating
 opt :   5.7710  next Energy=   -91.945857 (dE=-0.138E-05)
 bond charge predicted
       N       E                     dE             d eps       ncg     rms          rms(c)
DAV:   1    -0.919458564415E+02   -0.41633E-06   -0.11622E-04 11296   0.381E-02    0.390E-03
RMM:   2    -0.919458566366E+02   -0.19508E-06   -0.30736E-06 10752   0.734E-03    0.224E-03
RMM:   3    -0.919458566523E+02   -0.15729E-07   -0.62753E-07 10800   0.358E-03    0.625E-04
RMM:   4    -0.919458566641E+02   -0.11757E-07   -0.12353E-07 10897   0.160E-03    0.327E-04
RMM:   5    -0.919458566651E+02   -0.10577E-08   -0.20094E-08  7384   0.677E-04
  19 F= -.91945857E+02 E0= -.91945857E+02  d E =-.140359E-05
 curvature:  -1.11 expect dE=-0.111E-06 dE for cont linesearch -0.103E-08
 ZBRENT: interpolating
 opt :   6.2077  next Energy=   -91.945857 (dE=-0.141E-05)
 bond charge predicted
       N       E                     dE             d eps       ncg     rms          rms(c)
DAV:   1    -0.919458566623E+02    0.17762E-08   -0.12275E-06 12368   0.397E-03    0.411E-04
RMM:   2    -0.919458566642E+02   -0.19500E-08   -0.31799E-08  7365   0.733E-04    0.234E-04
RMM:   3    -0.919458566643E+02   -0.10732E-09   -0.55748E-09  5745   0.335E-04    0.722E-05
RMM:   4    -0.919458566644E+02   -0.92768E-10   -0.98703E-10  5483   0.141E-04    0.383E-05
RMM:   5    -0.919458566644E+02   -0.27285E-11   -0.40401E-11  1010   0.626E-05
  20 F= -.91945857E+02 E0= -.91945857E+02  d E =-.140291E-05
 curvature:  -7.73 expect dE=-0.924E-06 dE for cont linesearch -0.353E-08
 trial: gam= 0.35113 g(F)=  0.120E-06 g(S)=  0.000E+00 ort =-0.213E-07 (trialstep = 0.204E+01)
 search vector abs. value=  0.227E-06
 bond charge predicted
       N       E                     dE             d eps       ncg     rms          rms(c)
DAV:   1    -0.919458566092E+02    0.55205E-07   -0.88198E-06 11440   0.102E-02    0.144E-03
RMM:   2    -0.919458566453E+02   -0.36117E-07   -0.46584E-07 10752   0.265E-03    0.581E-04
RMM:   3    -0.919458566506E+02   -0.52187E-08   -0.72778E-08 10775   0.122E-03    0.269E-04
RMM:   4    -0.919458566514E+02   -0.82400E-09   -0.11502E-08  7015   0.513E-04    0.112E-04
RMM:   5    -0.919458566516E+02   -0.22828E-09   -0.21002E-09  6626   0.210E-04
  21 F= -.91945857E+02 E0= -.91945857E+02  d E =0.128193E-07
 trial-energy change:    0.000000  1 .order    0.000000   -0.000000    0.000000
 step:   0.9545(harm=  0.9545)  dis= 0.00003  next Energy=   -91.945857 (dE=-0.535E-07)
 bond charge predicted
       N       E                     dE             d eps       ncg     rms          rms(c)
DAV:   1    -0.919458567072E+02   -0.55858E-07   -0.24777E-06 11424   0.542E-03    0.770E-04
RMM:   2    -0.919458567180E+02   -0.10760E-07   -0.12933E-07 10752   0.139E-03    0.312E-04
RMM:   3    -0.919458567189E+02   -0.90949E-09   -0.19868E-08  6350   0.633E-04    0.145E-04
RMM:   4    -0.919458567187E+02    0.23465E-09   -0.27333E-09  5587   0.250E-04    0.588E-05
RMM:   5    -0.919458567186E+02    0.29104E-10   -0.43053E-10  4271   0.109E-04
  22 F= -.91945857E+02 E0= -.91945857E+02  d E =-.542159E-07
 curvature:  -0.97 expect dE=-0.563E-08 dE for cont linesearch -0.149E-10
 ZBRENT: interpolating
 opt :   0.9703  next Energy=   -91.945857 (dE=-0.542E-07)
 bond charge predicted
       N       E                     dE             d eps       ncg     rms          rms(c)
DAV:   1    -0.919458567187E+02   -0.48203E-10   -0.71072E-10  8048   0.108E-04    0.282E-05
RMM:   2    -0.919458567187E+02   -0.90949E-12   -0.46304E-12  1270   0.413E-05    0.260E-05
RMM:   3    -0.919458567187E+02   -0.10004E-10    0.00000E+00   437   0.411E-05    0.246E-05
RMM:   4    -0.919458567187E+02    0.27285E-11    0.00000E+00   347   0.411E-05    0.246E-05
RMM:   5    -0.919458567187E+02    0.90949E-12    0.00000E+00   311   0.411E-05
  23 F= -.91945857E+02 E0= -.91945857E+02  d E =-.543005E-07
 curvature:  -0.95 expect dE=-0.552E-08 dE for cont linesearch -0.441E-11
 trial: gam=-0.00646 g(F)=  0.579E-08 g(S)=  0.000E+00 ort =-0.103E-08 (trialstep = 0.183E+01)
 search vector abs. value=  0.591E-08
 bond charge predicted
       N       E                     dE             d eps       ncg     rms          rms(c)
DAV:   1    -0.919458567199E+02   -0.11487E-08   -0.24023E-07 11672   0.164E-03    0.262E-04
RMM:   2    -0.919458567207E+02   -0.83492E-09   -0.16109E-08  5739   0.488E-04    0.927E-05
RMM:   3    -0.919458567210E+02   -0.28649E-09   -0.21008E-09  5454   0.203E-04    0.487E-05
RMM:   4    -0.919458567211E+02   -0.47294E-10   -0.18383E-10  3076   0.876E-05    0.289E-05
RMM:   5    -0.919458567211E+02   -0.13642E-10   -0.13222E-12   952   0.691E-05
  24 F= -.91945857E+02 E0= -.91945857E+02  d E =-.233194E-08
 trial-energy change:   -0.000000  1 .order   -0.000000   -0.000000    0.000000
 step:   1.1872(harm=  1.1872)  dis= 0.00001  next Energy=   -91.945857 (dE=-0.344E-08)
 bond charge predicted
       N       E                     dE             d eps       ncg     rms          rms(c)
DAV:   1    -0.919458567221E+02   -0.10068E-08   -0.30677E-08 10008   0.583E-04    0.807E-05
RMM:   2    -0.919458567223E+02   -0.21919E-09   -0.23972E-09  5434   0.188E-04    0.415E-05
RMM:   3    -0.919458567222E+02    0.10368E-09   -0.27569E-11   467   0.724E-05    0.303E-05
RMM:   4    -0.919458567221E+02    0.65484E-10   -0.40691E-12   305   0.751E-05    0.247E-05
RMM:   5    -0.919458567221E+02   -0.12733E-10    0.00000E+00   182   0.737E-05
  25 F= -.91945857E+02 E0= -.91945857E+02  d E =-.338787E-08
 curvature:  -0.61 expect dE=-0.375E-09 dE for cont linesearch -0.922E-11
 ZBRENT: interpolating
 opt :   1.1288  next Energy=   -91.945857 (dE=-0.340E-08)
 bond charge predicted
       N       E                     dE             d eps       ncg     rms          rms(c)
DAV:   1    -0.919458567221E+02   -0.35470E-10   -0.41932E-10  6576   0.904E-05    0.269E-05
RMM:   2    -0.919458567222E+02   -0.29104E-10    0.00000E+00   373   0.444E-05    0.253E-05
RMM:   3    -0.919458567222E+02   -0.32742E-10    0.00000E+00   198   0.465E-05    0.246E-05
RMM:   4    -0.919458567222E+02   -0.54570E-11    0.00000E+00   147   0.466E-05    0.246E-05
RMM:   5    -0.919458567222E+02    0.36380E-11    0.00000E+00   139   0.466E-05
  26 F= -.91945857E+02 E0= -.91945857E+02  d E =-.347427E-08
 curvature:  -0.58 expect dE=-0.329E-09 dE for cont linesearch -0.261E-10
 ZBRENT: interpolating
 opt :   1.1658  next Energy=   -91.945857 (dE=-0.339E-08)
 bond charge predicted
       N       E                     dE             d eps       ncg     rms          rms(c)
DAV:   1    -0.919458567222E+02   -0.81855E-11   -0.11804E-10  6464   0.517E-05    0.259E-05
RMM:   2    -0.919458567222E+02    0.33651E-10    0.00000E+00   285   0.203E-05    0.250E-05
RMM:   3    -0.919458567221E+02    0.39108E-10    0.00000E+00   172   0.213E-05    0.246E-05
RMM:   4    -0.919458567221E+02    0.63665E-11    0.00000E+00   133   0.213E-05    0.246E-05
RMM:   5    -0.919458567221E+02   -0.18190E-11    0.00000E+00   128   0.213E-05
  27 F= -.91945857E+02 E0= -.91945857E+02  d E =-.340879E-08
 curvature:  -0.07 expect dE=-0.421E-10 dE for cont linesearch -0.109E-12
 trial: gam= 0.11971 g(F)=  0.593E-09 g(S)=  0.000E+00 ort =-0.954E-10 (trialstep = 0.169E+01)
 search vector abs. value=  0.753E-09
 bond charge predicted
       N       E                     dE             d eps       ncg     rms          rms(c)
DAV:   1    -0.919458567223E+02   -0.16917E-09   -0.16817E-08  8168   0.460E-04    0.613E-05
RMM:   2    -0.919458567225E+02   -0.20282E-09   -0.21107E-09  5251   0.178E-04    0.358E-05
RMM:   3    -0.919458567225E+02   -0.20009E-10   -0.36667E-12   257   0.749E-05    0.290E-05
RMM:   4    -0.919458567226E+02   -0.19099E-10   -0.19622E-13   170   0.754E-05    0.246E-05
RMM:   5    -0.919458567225E+02    0.18190E-11    0.00000E+00   131   0.753E-05
  28 F= -.91945857E+02 E0= -.91945857E+02  d E =-.407454E-09
 trial-energy change:   -0.000000  1 .order   -0.000000   -0.000000    0.000000
 step:   1.2030(harm=  1.2030)  dis= 0.00000  next Energy=   -91.945857 (dE=-0.350E-09)
 bond charge predicted
       N       E                     dE             d eps       ncg     rms          rms(c)
DAV:   1    -0.919458567226E+02   -0.12733E-10   -0.11530E-09  6384   0.138E-04    0.357E-05
RMM:   2    -0.919458567226E+02   -0.23647E-10    0.00000E+00   216   0.384E-05    0.291E-05
RMM:   3    -0.919458567226E+02    0.54570E-11    0.00000E+00   128   0.396E-05    0.246E-05
RMM:   4    -0.919458567226E+02    0.00000E+00    0.00000E+00   124   0.397E-05    0.246E-05
RMM:   5    -0.919458567226E+02   -0.18190E-11    0.00000E+00   124   0.397E-05
  29 F= -.91945857E+02 E0= -.91945857E+02  d E =-.442014E-09
 curvature:  -0.78 expect dE=-0.188E-09 dE for cont linesearch -0.318E-10
 ZBRENT: interpolating
 opt :   1.4114  next Energy=   -91.945857 (dE=-0.460E-09)
 bond charge predicted
       N       E                     dE             d eps       ncg     rms          rms(c)
DAV:   1    -0.919458567226E+02   -0.16371E-10   -0.21146E-10  6392   0.583E-05    0.276E-05
RMM:   2    -0.919458567226E+02    0.11823E-10    0.00000E+00   217   0.179E-05    0.257E-05
RMM:   3    -0.919458567226E+02    0.72760E-11    0.00000E+00   136   0.198E-05    0.246E-05
RMM:   4    -0.919458567226E+02   -0.36380E-11    0.00000E+00   127   0.199E-05    0.246E-05
RMM:   5    -0.919458567226E+02    0.27285E-11    0.00000E+00   124   0.199E-05
  30 F= -.91945857E+02 E0= -.91945857E+02  d E =-.438376E-09
 curvature:  -0.45 expect dE=-0.159E-09 dE for cont linesearch -0.113E-11
 trial: gam= 0.66106 g(F)=  0.356E-09 g(S)=  0.000E+00 ort =-0.436E-10 (trialstep = 0.164E+01)
 search vector abs. value=  0.684E-09
 bond charge predicted
       N       E                     dE             d eps       ncg     rms          rms(c)
DAV:   1    -0.919458567230E+02   -0.39927E-09   -0.10168E-08  6552   0.369E-04    0.578E-05
RMM:   2    -0.919458567231E+02   -0.96406E-10   -0.98742E-10  5092   0.134E-04    0.321E-05
RMM:   3    -0.919458567231E+02   -0.81855E-11   -0.16681E-12   147   0.566E-05    0.269E-05
RMM:   4    -0.919458567231E+02    0.72760E-11   -0.10047E-12   132   0.575E-05    0.246E-05
RMM:   5    -0.919458567231E+02    0.90949E-12    0.00000E+00   121   0.574E-05
  31 F= -.91945857E+02 E0= -.91945857E+02  d E =-.498403E-09
 trial-energy change:   -0.000000  1 .order   -0.000000   -0.000000   -0.000000
 step:   3.1805(harm=  3.1805)  dis= 0.00001  next Energy=   -91.945857 (dE=-0.520E-09)
 bond charge predicted
       N       E                     dE             d eps       ncg     rms          rms(c)
DAV:   1    -0.919458567233E+02   -0.24920E-09   -0.10354E-08  6528   0.363E-04    0.484E-05
RMM:   2    -0.919458567235E+02   -0.12187E-09   -0.11889E-09  5145   0.146E-04    0.319E-05
RMM:   3    -0.919458567234E+02    0.27285E-11   -0.47890E-12   239   0.637E-05    0.273E-05
RMM:   4    -0.919458567234E+02    0.63665E-11    0.00000E+00   136   0.642E-05    0.246E-05
RMM:   5    -0.919458567234E+02   -0.54570E-11    0.00000E+00   119   0.642E-05
  32 F= -.91945857E+02 E0= -.91945857E+02  d E =-.866748E-09
 curvature:  -3.33 expect dE=-0.288E-09 dE for cont linesearch -0.370E-10
 ZBRENT: increasing intervall
 opt :   6.2672  next Energy=   -91.945857 (dE=-0.916E-09)
 bond charge predicted
       N       E                     dE             d eps       ncg     rms          rms(c)
DAV:   1    -0.919458567238E+02   -0.32378E-09   -0.41632E-08 10512   0.703E-04    0.721E-05
RMM:   2    -0.919458567239E+02   -0.14279E-09   -0.14855E-09  5394   0.164E-04    0.472E-05
RMM:   3    -0.919458567239E+02    0.45475E-11   -0.88252E-11  1220   0.709E-05    0.273E-05
RMM:   4    -0.919458567239E+02   -0.90949E-12   -0.25824E-12   284   0.618E-05    0.246E-05
RMM:   5    -0.919458567239E+02    0.00000E+00    0.00000E+00   171   0.614E-05
  33 F= -.91945857E+02 E0= -.91945857E+02  d E =-.132422E-08
 curvature:  -4.39 expect dE=-0.715E-09 dE for cont linesearch -0.300E-10
 ZBRENT: increasing intervall
 opt :  12.4406  next Energy=   -91.945857 (dE=-0.163E-08)
 bond charge predicted
       N       E                     dE             d eps       ncg     rms          rms(c)
DAV:   1    -0.919458567232E+02    0.67212E-09   -0.15258E-07 11328   0.137E-03    0.137E-04
RMM:   2    -0.919458567236E+02   -0.33197E-09   -0.44455E-09  5462   0.277E-04    0.829E-05
RMM:   3    -0.919458567236E+02   -0.26375E-10   -0.71546E-10  5247   0.123E-04    0.354E-05
RMM:   4    -0.919458567236E+02   -0.36380E-11   -0.65515E-12   843   0.528E-05    0.254E-05
RMM:   5    -0.919458567236E+02    0.00000E+00   -0.23343E-13   521   0.523E-05
  34 F= -.91945857E+02 E0= -.91945857E+02  d E =-.101409E-08
 curvature: -44.68 expect dE=-0.356E-07 dE for cont linesearch -0.349E-08
 ZBRENT: bracketing found
 ZBRENT: interpolating
 opt :   7.6768  next Energy=   -91.945857 (dE=-0.137E-08)
 bond charge predicted
       N       E                     dE             d eps       ncg     rms          rms(c)
DAV:   1    -0.919458567239E+02   -0.26193E-09   -0.88865E-08 11328   0.106E-03    0.113E-04
RMM:   2    -0.919458567240E+02   -0.12460E-09   -0.24488E-09  5429   0.203E-04    0.669E-05
RMM:   3    -0.919458567240E+02    0.12733E-10   -0.14270E-10  1247   0.903E-05    0.300E-05
RMM:   4    -0.919458567240E+02    0.90949E-12   -0.33700E-11   421   0.757E-05    0.247E-05
RMM:   5    -0.919458567240E+02   -0.45475E-11    0.00000E+00   124   0.713E-05
  35 F= -.91945857E+02 E0= -.91945857E+02  d E =-.139153E-08
 curvature:  -0.62 expect dE=-0.162E-09 dE for cont linesearch -0.188E-11
 trial: gam= 0.71789 g(F)=  0.262E-09 g(S)=  0.000E+00 ort = 0.456E-10 (trialstep = 0.267E+01)
 search vector abs. value=  0.728E-09
 bond charge predicted
       N       E                     dE             d eps       ncg     rms          rms(c)
DAV:   1    -0.919458567237E+02    0.24647E-09   -0.38298E-08 10464   0.683E-04    0.862E-05
RMM:   2    -0.919458567239E+02   -0.13188E-09   -0.21539E-09  5432   0.179E-04    0.459E-05
RMM:   3    -0.919458567239E+02   -0.30013E-10   -0.58901E-11   845   0.750E-05    0.308E-05
RMM:   4    -0.919458567239E+02   -0.12733E-10   -0.96733E-13   253   0.711E-05    0.246E-05
RMM:   5    -0.919458567239E+02   -0.90949E-12    0.00000E+00   174   0.708E-05
  36 F= -.91945857E+02 E0= -.91945857E+02  d E =0.754881E-10
 trial-energy change:    0.000000  1 .order    0.000000   -0.000000    0.000000
 step:   1.2795(harm=  1.2795)  dis= 0.00000  next Energy=   -91.945857 (dE=-0.189E-09)
 bond charge predicted
       N       E                     dE             d eps       ncg     rms          rms(c)
DAV:   1    -0.919458567241E+02   -0.16280E-09   -0.10330E-08  6344   0.362E-04    0.602E-05
RMM:   2    -0.919458567242E+02   -0.10732E-09   -0.10312E-09  4845   0.130E-04    0.340E-05
RMM:   3    -0.919458567242E+02    0.11823E-10   -0.15597E-13   145   0.564E-05    0.272E-05
RMM:   4    -0.919458567242E+02    0.18190E-11    0.00000E+00   131   0.569E-05    0.246E-05
RMM:   5    -0.919458567241E+02    0.63665E-11    0.00000E+00   123   0.569E-05
  37 F= -.91945857E+02 E0= -.91945857E+02  d E =-.173713E-09
 curvature:  -1.58 expect dE=-0.801E-10 dE for cont linesearch -0.224E-10
 ZBRENT: interpolating
 opt :   1.6142  next Energy=   -91.945857 (dE=-0.191E-09)
 bond charge predicted
       N       E                     dE             d eps       ncg     rms          rms(c)
DAV:   1    -0.919458567241E+02    0.12733E-10   -0.42919E-10  6264   0.877E-05    0.322E-05
RMM:   2    -0.919458567241E+02    0.18190E-11    0.00000E+00   222   0.214E-05    0.276E-05
RMM:   3    -0.919458567241E+02    0.14552E-10    0.00000E+00   128   0.224E-05    0.246E-05
RMM:   4    -0.919458567241E+02    0.90949E-12    0.00000E+00   118   0.225E-05    0.246E-05
RMM:   5    -0.919458567241E+02   -0.18190E-11    0.00000E+00   117   0.225E-05
  38 F= -.91945857E+02 E0= -.91945857E+02  d E =-.151886E-09
 curvature:  -1.20 expect dE=-0.139E-09 dE for cont linesearch -0.279E-10
 ZBRENT: interpolating
 opt :   1.4263  next Energy=   -91.945857 (dE=-0.181E-09)
 bond charge predicted
       N       E                     dE             d eps       ncg     rms          rms(c)
DAV:   1    -0.919458567241E+02   -0.24556E-10   -0.11417E-10  6288   0.449E-05    0.265E-05
RMM:   2    -0.919458567241E+02   -0.90949E-12    0.00000E+00   216   0.158E-05    0.253E-05
RMM:   3    -0.919458567242E+02   -0.12733E-10    0.00000E+00   129   0.169E-05    0.246E-05
RMM:   4    -0.919458567242E+02    0.18190E-11    0.00000E+00   115   0.170E-05    0.246E-05
RMM:   5    -0.919458567242E+02   -0.27285E-11    0.00000E+00   113   0.170E-05
  39 F= -.91945857E+02 E0= -.91945857E+02  d E =-.189175E-09
 curvature:  -0.32 expect dE=-0.143E-10 dE for cont linesearch -0.291E-14
 trial: gam= 0.30059 g(F)=  0.444E-10 g(S)=  0.000E+00 ort =-0.257E-11 (trialstep = 0.242E+01)
 search vector abs. value=  0.200E-09
 bond charge predicted
       N       E                     dE             d eps       ncg     rms          rms(c)
DAV:   1    -0.919458567241E+02    0.76398E-10   -0.37258E-09  6240   0.225E-04    0.459E-05
RMM:   2    -0.919458567241E+02   -0.43656E-10   -0.91489E-11  1949   0.846E-05    0.326E-05
RMM:   3    -0.919458567241E+02    0.45475E-11   -0.68490E-11   609   0.780E-05    0.247E-05
RMM:   4    -0.919458567241E+02   -0.18190E-11   -0.69932E-12   168   0.720E-05    0.246E-05
RMM:   5    -0.919458567241E+02   -0.90949E-12   -0.81330E-13   121   0.713E-05
  40 F= -.91945857E+02 E0= -.91945857E+02  d E =0.372893E-10
 trial-energy change:    0.000000  1 .order    0.000000   -0.000000    0.000000
 step:   0.9569(harm=  0.9569)  dis= 0.00000  next Energy=   -91.945857 (dE=-0.209E-10)
 bond charge predicted
       N       E                     dE             d eps       ncg     rms          rms(c)
DAV:   1    -0.919458567241E+02   -0.16371E-10   -0.12718E-09  6240   0.133E-04    0.439E-05
