unknown system                          
           1
     0.000000    5.435812    5.435812
     5.435812    0.000000    5.435812
     5.435812    5.435812    0.000000
   Si
    16
Direct configuration=     1
   0.12440572  0.12455931  0.12470588
   0.62507812  0.12509577  0.12404730
   0.12525397  0.62504246  0.12445699
   0.62431623  0.62556427  0.12554969
   0.12515869  0.12413735  0.62412231
   0.62482786  0.12525749  0.62447357
   0.12479720  0.62459234  0.62471179
   0.62461423  0.62439152  0.62454330
   0.00014719  0.99910474  0.99954696
   0.50051615  0.00023080  0.99935645
   0.00046037  0.49961852  0.99965531
   0.49954610  0.49934237  0.00034380
   0.00007471  0.99958604  0.49983229
   0.49963494  0.00052186  0.49922311
   0.00042169  0.50052960  0.49923111
   0.50020306  0.50036419  0.49913624
Direct configuration=     2
   0.12492404  0.12450751  0.12460264
   0.62519877  0.12486754  0.12443543
   0.12514488  0.62468947  0.12463026
   0.62498072  0.62526106  0.12459959
   0.12495033  0.12491255  0.62428282
   0.62494276  0.12518926  0.62436015
   0.12507805  0.62472789  0.62479343
   0.62488079  0.62490786  0.62473326
   0.00007853  0.99961478  0.99919535
   0.49978116  0.00034633  0.99944120
  -0.00009647  0.49969906  0.99990298
   0.50002332  0.49990668 -0.00014351
  -0.00017000  0.99954520  0.49959846
   0.50000948 -0.00009487  0.49933055
  -0.00001470  0.49982911  0.49952487
   0.49974455  0.50002920  0.49964864
Direct configuration=     3
   0.12489248  0.12451067  0.12460892
   0.62519143  0.12488143  0.12441180
   0.12515152  0.62471096  0.12461971
   0.62494026  0.62527952  0.12465744
   0.12496302  0.12486536  0.62427304
   0.62493577  0.12519341  0.62436706
   0.12506095  0.62471964  0.62478846
   0.62486456  0.62487642  0.62472169
   0.00008271  0.99958373  0.99921676
   0.49982591  0.00033930  0.99943604
  -0.00006256  0.49969415  0.99988791
   0.49999427  0.49987232 -0.00011384
  -0.00015510  0.99954768  0.49961270
   0.49998668 -0.00005732  0.49932401
   0.00001187  0.49987176  0.49950698
   0.49977246  0.50004959  0.49961744
Direct configuration=     4
   0.12484578  0.12460746  0.12457089
   0.62513814  0.12491577  0.12444276
   0.12510919  0.62467898  0.12463019
   0.62494034  0.62525696  0.12458434
   0.12497675  0.12487693  0.62423485
   0.62487120  0.12507225  0.62440265
   0.12491482  0.62466325  0.62485898
   0.62490390  0.62489086  0.62474408
   0.00012506  0.99966827  0.99923094
   0.49983901  0.00026539  0.99940874
  -0.00004345  0.49963273  0.99986357
   0.50012074  0.49992641 -0.00024442
  -0.00011691  0.99965220  0.49956450
   0.50001379 -0.00009709  0.49943126
  -0.00006722  0.49986723  0.49962107
   0.49988508  0.50006105  0.49959173
Direct configuration=     5
   0.12484153  0.12461627  0.12456742
   0.62513328  0.12491889  0.12444558
   0.12510534  0.62467606  0.12463114
   0.62494034  0.62525491  0.12457768
   0.12497800  0.12487798  0.62423137
   0.62486531  0.12506121  0.62440589
   0.12490151  0.62465812  0.62486540
   0.62490748  0.62489217  0.62474612
   0.00012892  0.99967597  0.99923224
   0.49984021  0.00025866  0.99940626
  -0.00004171  0.49962714  0.99986135
   0.50013226  0.49993133 -0.00025632
  -0.00011343  0.99966172  0.49956010
   0.50001626 -0.00010071  0.49944103
  -0.00007443  0.49986681  0.49963146
   0.49989534  0.50006210  0.49958939
Direct configuration=     6
   0.12485167  0.12464577  0.12455959
   0.62511888  0.12492852  0.12444922
   0.12511162  0.62468558  0.12463133
   0.62495081  0.62522830  0.12458597
   0.12499956  0.12486531  0.62425053
   0.62487820  0.12504693  0.62441647
   0.12489659  0.62467213  0.62484581
   0.62492412  0.62489746  0.62472891
   0.00011821  0.99968838  0.99925305
   0.49985063  0.00022358  0.99941329
  -0.00005275  0.49963517  0.99984067
   0.50011400  0.49992739 -0.00027631
  -0.00012173  0.99967837  0.49955903
   0.49999552 -0.00010298  0.49945437
  -0.00008457  0.49986621  0.49963653
   0.49990546  0.50005251  0.49958765
Direct configuration=     7
   0.12486399  0.12468161  0.12455008
   0.62510138  0.12494021  0.12445363
   0.12511925  0.62469715  0.12463155
   0.62496352  0.62519599  0.12459605
   0.12502575  0.12484991  0.62427380
   0.62489386  0.12502957  0.62442933
   0.12489061  0.62468914  0.62482202
   0.62494433  0.62490389  0.62470802
   0.00010521  0.99970345  0.99927833
   0.49986328  0.00018098  0.99942182
  -0.00006615  0.49964494  0.99981554
   0.50009182  0.49992260 -0.00030059
  -0.00013182  0.99969859  0.49955773
   0.49997034 -0.00010573  0.49947058
  -0.00009690  0.49986548  0.49964267
   0.49991774  0.50004087  0.49958553
Direct configuration=     8
   0.12487315  0.12469573  0.12454748
   0.62508882  0.12493871  0.12445778
   0.12510918  0.62470623  0.12462996
   0.62496286  0.62516811  0.12460033
   0.12502225  0.12484466  0.62429608
   0.62489652  0.12502132  0.62443735
   0.12489358  0.62470332  0.62480102
   0.62494718  0.62490721  0.62469482
   0.00009657  0.99971386  0.99929882
   0.49987398  0.00015673  0.99943126
  -0.00006525  0.49966407  0.99979710
   0.50008385  0.49992304 -0.00031323
  -0.00012751  0.99971084  0.49955552
   0.49997055 -0.00010444  0.49947218
  -0.00008944  0.49985828  0.49963913
   0.49991992  0.50003099  0.49959051
Direct configuration=     9
   0.12490065  0.12473809  0.12453969
   0.62505116  0.12493419  0.12447024
   0.12507896  0.62473349  0.12462520
   0.62496086  0.62508447  0.12461316
   0.12501175  0.12482891  0.62436291
   0.62490451  0.12499658  0.62446143
   0.12490247  0.62474585  0.62473802
   0.62495572  0.62491720  0.62465522
   0.00007066  0.99974507  0.99936028
   0.49990606  0.00008396  0.99945957
  -0.00006254  0.49972146  0.99974176
   0.50005995  0.49992435 -0.00035117
  -0.00011459  0.99974757  0.49954889
   0.49997120 -0.00010058  0.49947697
  -0.00006706  0.49983671  0.49962851
   0.49992648  0.50000132  0.49960543
Direct configuration=    10
   0.12495564  0.12482283  0.12452412
   0.62497583  0.12492516  0.12449516
   0.12501852  0.62478800  0.12461567
   0.62495685  0.62491720  0.12463882
   0.12499074  0.12479741  0.62449658
   0.62492050  0.12494708  0.62450959
   0.12492024  0.62483092  0.62461201
   0.62497281  0.62493717  0.62457601
   0.00001882  0.99980751  0.99948321
   0.49997023 -0.00006157  0.99951618
  -0.00005712  0.49983624  0.99963108
   0.50001214  0.49992697 -0.00042704
  -0.00008876  0.99982104  0.49953563
   0.49997251 -0.00009287  0.49948654
  -0.00002231  0.49979355  0.49960726
   0.49993958  0.49994200  0.49963528
Direct configuration=    11
   0.12496771  0.12484144  0.12452070
   0.62495929  0.12492318  0.12450063
   0.12500524  0.62479997  0.12461358
   0.62495598  0.62488046  0.12464445
   0.12498613  0.12479049  0.62452594
   0.62492401  0.12493621  0.62452017
   0.12492415  0.62484960  0.62458434
   0.62497656  0.62494156  0.62455862
   0.00000744  0.99982122  0.99951021
   0.49998432 -0.00009353  0.99952862
  -0.00005592  0.49986145  0.99960677
   0.50000164  0.49992754 -0.00044370
  -0.00008308  0.99983717  0.49953272
   0.49997280 -0.00009118  0.49948864
  -0.00001248  0.49978408  0.49960259
   0.49994246  0.49992897  0.49964184
Direct configuration=    12
   0.12498354  0.12487153  0.12451977
   0.62498109  0.12491820  0.12449496
   0.12498272  0.62483418  0.12459192
   0.62495242  0.62486290  0.12463637
   0.12497046  0.12478562  0.62455565
   0.62492989  0.12491185  0.62454359
   0.12493801  0.62486128  0.62457392
   0.62499803  0.62492534  0.62455205
  -0.00003125  0.99983043  0.99956374
   0.49998228 -0.00014284  0.99954335
  -0.00003763  0.49987485  0.99957204
   0.49998401  0.49991692 -0.00045122
  -0.00006563  0.99986592  0.49951934
   0.49997064 -0.00007259  0.49949339
  -0.00000968  0.49978370  0.49959318
   0.49992731  0.49991134  0.49963406
Direct configuration=    13
   0.12498191  0.12486844  0.12451987
   0.62497885  0.12491871  0.12449554
   0.12498504  0.62483066  0.12459415
   0.62495279  0.62486471  0.12463720
   0.12497207  0.12478612  0.62455260
   0.62492928  0.12491436  0.62454118
   0.12493659  0.62486008  0.62457499
   0.62499582  0.62492700  0.62455273
  -0.00002727  0.99982949  0.99955824
   0.49998249 -0.00013777  0.99954183
  -0.00003951  0.49987347  0.99957561
   0.49998583  0.49991801 -0.00045045
  -0.00006743  0.99986297  0.49952071
   0.49997086 -0.00007450  0.49949290
  -0.00000997  0.49978374  0.49959415
   0.49992887  0.49991316  0.49963486
Direct configuration=    14
   0.12497896  0.12487168  0.12452088
   0.62497810  0.12491328  0.12449771
   0.12498116  0.62483678  0.12458773
   0.62495936  0.62486401  0.12462502
   0.12496826  0.12479214  0.62455998
   0.62493600  0.12490733  0.62454637
   0.12493420  0.62486371  0.62457619
   0.62499306  0.62492069  0.62455400
  -0.00002483  0.99983556  0.99956055
   0.49997874 -0.00013739  0.99954584
  -0.00003954  0.49987084  0.99957486
   0.49998155  0.49991296 -0.00044589
  -0.00006366  0.99986428  0.49952059
   0.49996945 -0.00007714  0.49949842
  -0.00000756  0.49979273  0.49958835
   0.49993297  0.49990716  0.49962552
Direct configuration=    15
   0.12497548  0.12487550  0.12452207
   0.62497722  0.12490691  0.12450026
   0.12497660  0.62484397  0.12458018
   0.62496709  0.62486320  0.12461070
   0.12496378  0.12479922  0.62456867
   0.62494389  0.12489906  0.62455246
   0.12493139  0.62486798  0.62457759
   0.62498982  0.62491327  0.62455549
  -0.00002197  0.99984271  0.99956328
   0.49997434 -0.00013693  0.99955056
  -0.00003958  0.49986775  0.99957397
   0.49997653  0.49990703 -0.00044054
  -0.00005922  0.99986582  0.49952044
   0.49996780 -0.00008023  0.49950491
  -0.00000474  0.49980330  0.49958154
   0.49993779  0.49990011  0.49961453
Direct configuration=    16
   0.12497466  0.12487474  0.12452804
   0.62497519  0.12490113  0.12450975
   0.12497490  0.62484824  0.12457677
   0.62496718  0.62486420  0.12460275
   0.12496430  0.12481083  0.62456668
   0.62494756  0.12489432  0.62455373
   0.12493704  0.62486865  0.62457449
   0.62498585  0.62490695  0.62455574
  -0.00002392  0.99984706  0.99956275
   0.49997237 -0.00013566  0.99955219
  -0.00003896  0.49986839  0.99957166
   0.49997461  0.49990144 -0.00044089
  -0.00005488  0.99986698  0.49952603
   0.49996728 -0.00008826  0.49951335
  -0.00000924  0.49981354  0.49957778
   0.49994229  0.49989607  0.49960527
Direct configuration=    17
   0.12497220  0.12487245  0.12454594
   0.62496910  0.12488380  0.12453823
   0.12496979  0.62486106  0.12456654
   0.62496744  0.62486722  0.12457892
   0.12496586  0.12484567  0.62456072
   0.62495857  0.12488011  0.62455751
   0.12495397  0.62487065  0.62456519
   0.62497392  0.62488801  0.62455651
  -0.00002976  0.99986012  0.99956119
   0.49996647 -0.00013182  0.99955710
  -0.00003711  0.49987031  0.99956474
   0.49996886  0.49988466 -0.00044194
  -0.00004187  0.99987047  0.49954281
   0.49996572 -0.00011232  0.49953869
  -0.00002274  0.49984427  0.49956650
   0.49995580  0.49988397  0.49957746
Direct configuration=    18
   0.12496728  0.12486789  0.12458174
   0.62495692  0.12484915  0.12459518
   0.12495958  0.62488670  0.12454607
   0.62496798  0.62487325  0.12453125
   0.12496898  0.12491536  0.62454879
   0.62498059  0.12485168  0.62456507
   0.12498784  0.62487467  0.62454659
   0.62495007  0.62485013  0.62455803
  -0.00004146  0.99988625  0.99955807
   0.49995466 -0.00012416  0.99956692
  -0.00003340  0.49987414  0.99955090
   0.49995735  0.49985111 -0.00044404
  -0.00001584  0.99987745  0.49957637
   0.49996261 -0.00016046  0.49958936
  -0.00004975  0.49990571  0.49954393
   0.49998281  0.49985976  0.49952186
Direct configuration=    19
   0.12497074  0.12487109  0.12455660
   0.62496547  0.12487348  0.12455520
   0.12496675  0.62486870  0.12456044
   0.62496760  0.62486901  0.12456472
   0.12496678  0.12486644  0.62455717
   0.62496513  0.12487164  0.62455976
   0.12496406  0.62487185  0.62455965
   0.62496681  0.62487673  0.62455696
  -0.00003325  0.99986791  0.99956026
   0.49996295 -0.00012954  0.99956003
  -0.00003600  0.49987145  0.99956062
   0.49996543  0.49987467 -0.00044257
  -0.00003411  0.99987255  0.49955281
   0.49996480 -0.00012666  0.49955378
  -0.00003079  0.49986257  0.49955977
   0.49996385  0.49987676  0.49956090
Direct configuration=    20
   0.12497038  0.12487076  0.12455922
   0.62496458  0.12487095  0.12455935
   0.12496601  0.62487057  0.12455895
   0.62496764  0.62486946  0.12456124
   0.12496701  0.12487152  0.62455630
   0.62496674  0.12486956  0.62456031
   0.12496653  0.62487214  0.62455829
   0.62496507  0.62487396  0.62455707
  -0.00003410  0.99986981  0.99956003
   0.49996209 -0.00012898  0.99956075
  -0.00003573  0.49987173  0.99955961
   0.49996459  0.49987222 -0.00044272
  -0.00003221  0.99987306  0.49955526
   0.49996457 -0.00013018  0.49955748
  -0.00003276  0.49986706  0.49955813
   0.49996582  0.49987499  0.49955684
Direct configuration=    21
   0.12496148  0.12487282  0.12456105
   0.62496424  0.12486779  0.12456344
   0.12496403  0.62487391  0.12455629
   0.62496356  0.62487265  0.12455138
   0.12496560  0.12487590  0.62456051
   0.62496696  0.12486978  0.62455774
   0.12496856  0.62487192  0.62455528
   0.62496518  0.62486518  0.62455840
  -0.00003471  0.99987588  0.99955808
   0.49996982 -0.00013096  0.99955939
  -0.00003102  0.49987132  0.99955577
   0.49996585  0.49986744 -0.00044132
  -0.00003155  0.99987122  0.49956393
   0.49996652 -0.00013180  0.49956440
  -0.00003761  0.49988071  0.49955631
   0.49996933  0.49986489  0.49955548
Direct configuration=    22
   0.12496621  0.12487173  0.12456007
   0.62496442  0.12486947  0.12456126
   0.12496508  0.62487213  0.12455770
   0.62496573  0.62487095  0.12455662
   0.12496635  0.12487357  0.62455827
   0.62496684  0.12486966  0.62455911
   0.12496748  0.62487204  0.62455688
   0.62496512  0.62486985  0.62455769
  -0.00003439  0.99987265  0.99955912
   0.49996571 -0.00012991  0.99956011
  -0.00003353  0.49987154  0.99955781
   0.49996518  0.49986998 -0.00044207
  -0.00003191  0.99987220  0.49955932
   0.49996548 -0.00013094  0.49956072
  -0.00003503  0.49987345  0.49955728
   0.49996746  0.49987026  0.49955620
Direct configuration=    23
   0.12496614  0.12487174  0.12456009
   0.62496442  0.12486945  0.12456130
   0.12496506  0.62487216  0.12455768
   0.62496570  0.62487097  0.12455655
   0.12496634  0.12487361  0.62455830
   0.62496684  0.12486967  0.62455909
   0.12496750  0.62487204  0.62455686
   0.62496512  0.62486978  0.62455770
  -0.00003439  0.99987270  0.99955910
   0.49996577 -0.00012992  0.99956010
  -0.00003349  0.49987154  0.99955778
   0.49996519  0.49986994 -0.00044206
  -0.00003190  0.99987219  0.49955938
   0.49996550 -0.00013095  0.49956077
  -0.00003507  0.49987355  0.49955726
   0.49996749  0.49987018  0.49955619
Direct configuration=    24
   0.12496605  0.12487164  0.12455940
   0.62496585  0.12487000  0.12456021
   0.12496542  0.62487289  0.12455741
   0.62496670  0.62487011  0.12455663
   0.12496573  0.12487349  0.62455968
   0.62496735  0.12486961  0.62455937
   0.12496699  0.62487177  0.62455756
   0.62496549  0.62486968  0.62455851
  -0.00003487  0.99987258  0.99955926
   0.49996580 -0.00012914  0.99955871
  -0.00003412  0.49987194  0.99955705
   0.49996511  0.49986976 -0.00044175
  -0.00003357  0.99987173  0.49955967
   0.49996594 -0.00013019  0.49956033
  -0.00003447  0.49987328  0.49955755
   0.49996683  0.49986950  0.49955653
Direct configuration=    25
   0.12496608  0.12487168  0.12455964
   0.62496535  0.12486981  0.12456059
   0.12496530  0.62487263  0.12455751
   0.62496635  0.62487041  0.12455660
   0.12496594  0.12487353  0.62455920
   0.62496717  0.12486963  0.62455927
   0.12496717  0.62487187  0.62455732
   0.62496536  0.62486971  0.62455823
  -0.00003471  0.99987262  0.99955920
   0.49996579 -0.00012941  0.99955919
  -0.00003390  0.49987180  0.99955730
   0.49996514  0.49986982 -0.00044186
  -0.00003299  0.99987189  0.49955957
   0.49996578 -0.00013046  0.49956049
  -0.00003468  0.49987337  0.49955745
   0.49996706  0.49986974  0.49955641
Direct configuration=    26
   0.12496609  0.12487168  0.12455966
   0.62496530  0.12486979  0.12456063
   0.12496528  0.62487261  0.12455752
   0.62496632  0.62487044  0.12455660
   0.12496596  0.12487353  0.62455915
   0.62496716  0.12486963  0.62455926
   0.12496718  0.62487187  0.62455729
   0.62496535  0.62486972  0.62455820
  -0.00003469  0.99987262  0.99955920
   0.49996579 -0.00012944  0.99955924
  -0.00003388  0.49987179  0.99955733
   0.49996514  0.49986983 -0.00044187
  -0.00003293  0.99987190  0.49955956
   0.49996577 -0.00013048  0.49956050
  -0.00003470  0.49987338  0.49955744
   0.49996708  0.49986976  0.49955640
Direct configuration=    27
   0.12496608  0.12487168  0.12455965
   0.62496533  0.12486980  0.12456060
   0.12496529  0.62487262  0.12455751
   0.62496634  0.62487042  0.12455660
   0.12496595  0.12487353  0.62455918
   0.62496717  0.12486963  0.62455927
   0.12496717  0.62487187  0.62455731
   0.62496536  0.62486972  0.62455822
  -0.00003470  0.99987262  0.99955920
   0.49996579 -0.00012942  0.99955921
  -0.00003389  0.49987179  0.99955731
   0.49996514  0.49986983 -0.00044186
  -0.00003297  0.99987189  0.49955956
   0.49996578 -0.00013047  0.49956049
  -0.00003468  0.49987338  0.49955745
   0.49996707  0.49986975  0.49955641
Direct configuration=    28
   0.12496579  0.12487176  0.12455936
   0.62496548  0.12487001  0.12456013
   0.12496522  0.62487257  0.12455750
   0.62496619  0.62487052  0.12455664
   0.12496573  0.12487312  0.62455936
   0.62496693  0.12486983  0.62455914
   0.12496686  0.62487180  0.62455744
   0.62496547  0.62486974  0.62455827
  -0.00003458  0.99987252  0.99955927
   0.49996610 -0.00012950  0.99955909
  -0.00003370  0.49987171  0.99955736
   0.49996534  0.49986993 -0.00044169
  -0.00003309  0.99987177  0.49955953
   0.49996596 -0.00013006  0.49956028
  -0.00003446  0.49987323  0.49955760
   0.49996696  0.49986967  0.49955682
Direct configuration=    29
   0.12496588  0.12487174  0.12455944
   0.62496544  0.12486995  0.12456027
   0.12496524  0.62487259  0.12455750
   0.62496623  0.62487049  0.12455663
   0.12496579  0.12487324  0.62455931
   0.62496700  0.12486977  0.62455918
   0.12496695  0.62487182  0.62455740
   0.62496544  0.62486974  0.62455826
  -0.00003462  0.99987255  0.99955925
   0.49996601 -0.00012947  0.99955913
  -0.00003375  0.49987173  0.99955735
   0.49996528  0.49986990 -0.00044174
  -0.00003305  0.99987180  0.49955954
   0.49996591 -0.00013018  0.49956034
  -0.00003453  0.49987328  0.49955756
   0.49996699  0.49986969  0.49955670
Direct configuration=    30
   0.12496584  0.12487175  0.12455940
   0.62496546  0.12486997  0.12456021
   0.12496523  0.62487258  0.12455750
   0.62496621  0.62487050  0.12455663
   0.12496577  0.12487319  0.62455933
   0.62496697  0.12486980  0.62455916
   0.12496691  0.62487181  0.62455742
   0.62496545  0.62486974  0.62455826
  -0.00003460  0.99987254  0.99955926
   0.49996605 -0.00012948  0.99955911
  -0.00003373  0.49987172  0.99955735
   0.49996531  0.49986991 -0.00044172
  -0.00003307  0.99987179  0.49955953
   0.49996593 -0.00013013  0.49956031
  -0.00003450  0.49987326  0.49955758
   0.49996698  0.49986969  0.49955676
Direct configuration=    31
   0.12496591  0.12487172  0.12455924
   0.62496553  0.12487017  0.12455991
   0.12496533  0.62487235  0.12455767
   0.62496617  0.62487057  0.12455697
   0.12496581  0.12487277  0.62455926
   0.62496681  0.12487001  0.62455909
   0.12496676  0.62487175  0.62455756
   0.62496560  0.62486999  0.62455826
  -0.00003453  0.99987233  0.99955921
   0.49996606 -0.00012950  0.99955907
  -0.00003375  0.49987166  0.99955751
   0.49996539  0.49987014 -0.00044171
  -0.00003318  0.99987174  0.49955930
   0.49996592 -0.00012986  0.49955998
  -0.00003439  0.49987286  0.49955771
   0.49996679  0.49986993  0.49955708
Direct configuration=    32
   0.12496597  0.12487169  0.12455908
   0.62496561  0.12487036  0.12455962
   0.12496542  0.62487214  0.12455783
   0.62496613  0.62487063  0.12455729
   0.12496584  0.12487237  0.62455919
   0.62496666  0.12487021  0.62455902
   0.12496663  0.62487170  0.62455770
   0.62496574  0.62487023  0.62455826
  -0.00003446  0.99987213  0.99955917
   0.49996607 -0.00012951  0.99955903
  -0.00003377  0.49987159  0.99955766
   0.49996546  0.49987037 -0.00044171
  -0.00003329  0.99987169  0.49955907
   0.49996591 -0.00012961  0.49955966
  -0.00003429  0.49987249  0.49955784
   0.49996661  0.49987016  0.49955739
Direct configuration=    33
   0.12496610  0.12487163  0.12455877
   0.62496575  0.12487074  0.12455905
   0.12496560  0.62487170  0.12455815
   0.62496605  0.62487075  0.12455793
   0.12496591  0.12487159  0.62455906
   0.62496635  0.12487061  0.62455887
   0.12496636  0.62487158  0.62455796
   0.62496601  0.62487071  0.62455825
  -0.00003433  0.99987174  0.99955909
   0.49996608 -0.00012954  0.99955896
  -0.00003381  0.49987147  0.99955795
   0.49996562  0.49987081 -0.00044169
  -0.00003351  0.99987159  0.49955862
   0.49996588 -0.00012911  0.49955903
  -0.00003410  0.49987174  0.49955809
   0.49996625  0.49987062  0.49955800
Direct configuration=    34
   0.12496636  0.12487152  0.12455814
   0.62496603  0.12487149  0.12455790
   0.12496596  0.62487084  0.12455880
   0.62496589  0.62487099  0.12455921
   0.12496606  0.12487001  0.62455880
   0.62496574  0.12487141  0.62455859
   0.12496582  0.62487135  0.62455850
   0.62496655  0.62487167  0.62455824
  -0.00003406  0.99987094  0.99955892
   0.49996612 -0.00012959  0.99955881
  -0.00003388  0.49987122  0.99955853
   0.49996592  0.49987169 -0.00044167
  -0.00003395  0.99987140  0.49955772
   0.49996584 -0.00012810  0.49955777
  -0.00003370  0.49987024  0.49955860
   0.49996553  0.49987153  0.49955923
Direct configuration=    35
   0.12496616  0.12487161  0.12455863
   0.62496581  0.12487091  0.12455878
   0.12496568  0.62487151  0.12455830
   0.62496601  0.62487081  0.12455822
   0.12496595  0.12487123  0.62455901
   0.62496621  0.12487080  0.62455881
   0.12496623  0.62487153  0.62455809
   0.62496613  0.62487093  0.62455825
  -0.00003427  0.99987155  0.99955905
   0.49996609 -0.00012955  0.99955893
  -0.00003382  0.49987141  0.99955808
   0.49996569  0.49987101 -0.00044169
  -0.00003361  0.99987155  0.49955842
   0.49996587 -0.00012887  0.49955874
  -0.00003401  0.49987140  0.49955821
   0.49996608  0.49987082  0.49955828
Direct configuration=    36
   0.12496628  0.12487134  0.12455827
   0.62496579  0.12487135  0.12455836
   0.12496596  0.62487131  0.12455853
   0.62496618  0.62487041  0.12455886
   0.12496594  0.12487101  0.62455888
   0.62496606  0.12487104  0.62455864
   0.12496581  0.62487136  0.62455821
   0.62496599  0.62487150  0.62455828
  -0.00003404  0.99987119  0.99955885
   0.49996617 -0.00012902  0.99955848
  -0.00003420  0.49987158  0.99955822
   0.49996594  0.49987125 -0.00044174
  -0.00003419  0.99987131  0.49955847
   0.49996609 -0.00012882  0.49955844
  -0.00003365  0.49987069  0.49955867
   0.49996610  0.49987113  0.49955870
Direct configuration=    37
   0.12496622  0.12487148  0.12455845
   0.62496580  0.12487112  0.12455858
   0.12496582  0.62487141  0.12455841
   0.62496609  0.62487062  0.12455853
   0.12496594  0.12487112  0.62455895
   0.62496614  0.12487091  0.62455873
   0.12496603  0.62487145  0.62455814
   0.62496606  0.62487120  0.62455826
  -0.00003416  0.99987138  0.99955895
   0.49996613 -0.00012930  0.99955871
  -0.00003401  0.49987149  0.99955815
   0.49996581  0.49987112 -0.00044171
  -0.00003389  0.99987144  0.49955844
   0.49996598 -0.00012885  0.49955860
  -0.00003384  0.49987106  0.49955843
   0.49996609  0.49987097  0.49955849
Direct configuration=    38
   0.12496623  0.12487145  0.12455841
   0.62496580  0.12487118  0.12455853
   0.12496585  0.62487139  0.12455844
   0.62496611  0.62487057  0.12455861
   0.12496594  0.12487110  0.62455893
   0.62496612  0.12487094  0.62455871
   0.12496598  0.62487143  0.62455816
   0.62496605  0.62487127  0.62455827
  -0.00003413  0.99987133  0.99955893
   0.49996614 -0.00012923  0.99955865
  -0.00003405  0.49987151  0.99955816
   0.49996584  0.49987115 -0.00044172
  -0.00003396  0.99987141  0.49955845
   0.49996600 -0.00012884  0.49955856
  -0.00003379  0.49987097  0.49955849
   0.49996609  0.49987101  0.49955854
Direct configuration=    39
   0.12496622  0.12487146  0.12455843
   0.62496580  0.12487115  0.12455856
   0.12496583  0.62487140  0.12455842
   0.62496610  0.62487059  0.12455856
   0.12496594  0.12487111  0.62455894
   0.62496613  0.12487093  0.62455872
   0.12496601  0.62487144  0.62455815
   0.62496606  0.62487123  0.62455826
  -0.00003415  0.99987136  0.99955894
   0.49996613 -0.00012927  0.99955869
  -0.00003403  0.49987150  0.99955815
   0.49996582  0.49987114 -0.00044172
  -0.00003392  0.99987142  0.49955844
   0.49996599 -0.00012884  0.49955858
  -0.00003382  0.49987102  0.49955845
   0.49996609  0.49987099  0.49955851
Direct configuration=    40
   0.12496613  0.12487138  0.12455838
   0.62496587  0.12487128  0.12455846
   0.12496596  0.62487125  0.12455855
   0.62496599  0.62487072  0.12455871
   0.12496602  0.12487097  0.62455882
   0.62496600  0.12487112  0.62455856
   0.12496598  0.62487131  0.62455823
   0.62496613  0.62487130  0.62455832
  -0.00003412  0.99987126  0.99955877
   0.49996626 -0.00012918  0.99955852
  -0.00003402  0.49987145  0.99955822
   0.49996595  0.49987122 -0.00044173
  -0.00003408  0.99987131  0.49955850
   0.49996603 -0.00012875  0.49955848
  -0.00003390  0.49987096  0.49955858
   0.49996602  0.49987104  0.49955872
