   16   16  200    1
  0.3342540E+02  0.9111094E-09  0.9111094E-09  0.9111094E-09  0.5000000E-15
   1.0000000000000000E-004
  CAR 
 unknown system                          
    160    112     96
