<?xml version="1.0" encoding="ISO-8859-1"?>
<modeling>
 <generator>
  <i name="program" type="string">vasp </i>
  <i name="version" type="string">6.3.0  </i>
  <i name="subversion" type="string">20Jan22 (build Feb 21 2022 11:18:28) complex                          parallel </i>
  <i name="platform" type="string">CrayXC_GCC_OMP </i>
  <i name="date" type="string">2023 09 29 </i>
  <i name="time" type="string">07:58:43 </i>
 </generator>
 <incar>
  <i type="int" name="ISTART">     1</i>
  <i type="string" name="PREC">Accurate  (Precision level)</i>
  <i type="string" name="ALGO">FAST      (SCF minimisation algorithm</i>
  <i type="logical" name="ADDGRID"> T  </i>
  <i type="int" name="ISPIN">     1</i>
  <i type="int" name="INIWAV">     1</i>
  <i type="int" name="NELM">   500</i>
  <i type="int" name="NELMIN">     5</i>
  <i type="int" name="IBRION">     2</i>
  <i name="EDIFF">      0.00000001</i>
  <i name="EDIFFG">     -0.00000010</i>
  <i type="int" name="NSW">   200</i>
  <i type="int" name="ISIF">     2</i>
  <i type="int" name="ISYM">     2</i>
  <i type="int" name="NBLOCK">     1</i>
  <i name="ENMAX">    600.00000000</i>
  <i type="int" name="NEDOS">  1000</i>
  <i type="logical" name="LREAL"> F  </i>
  <i type="logical" name="LPLANE"> T  </i>
  <i type="int" name="ISMEAR">     0</i>
  <i name="SIGMA">      0.01000000</i>
  <i type="int" name="NWRITE">     2</i>
  <i type="int" name="LMAXMIX">     4</i>
  <i type="int" name="LORBIT">    11</i>
  <i type="int" name="ICORELEVEL">     1</i>
  <i type="string" name="GGA">PS     (PBEsol exchange-correlation)</i>
 </incar>
 <primitive_cell>
  <structure name="primitive_cell" >
   <crystal>
    <varray name="basis" >
     <v>       0.00000000       6.44251660       6.44251660 </v>
     <v>       6.44251660       0.00000000       6.44251660 </v>
     <v>       6.44251660       6.44251660       0.00000000 </v>
    </varray>
    <i name="volume">    534.80644663 </i>
    <varray name="rec_basis" >
     <v>      -0.07760942       0.07760942       0.07760942 </v>
     <v>       0.07760942      -0.07760942       0.07760942 </v>
     <v>       0.07760942       0.07760942      -0.07760942 </v>
    </varray>
   </crystal>
   <varray name="positions" >
    <v>       0.24859428       0.25144069       0.25029412 </v>
    <v>       0.75121883       0.24990423       0.24995270 </v>
    <v>       0.24974603       0.74957542       0.25054301 </v>
    <v>       0.75068377       0.74943573       0.24905031 </v>
    <v>       0.24984131       0.24986265       0.75087769 </v>
    <v>       0.74917214       0.24974251       0.75002643 </v>
    <v>       0.25020280       0.74840766       0.75028821 </v>
    <v>       0.74998577       0.75060848       0.74905670 </v>
    <v>       0.99985281       0.00089526       0.00045304 </v>
    <v>       0.49948385       0.99976920       0.00064355 </v>
    <v>       0.99953963       0.50038148       0.00034469 </v>
    <v>       0.50045390       0.50065763       0.99965620 </v>
    <v>       0.99992529       0.00041396       0.50016771 </v>
    <v>       0.50036506       0.99947814       0.50077689 </v>
    <v>       0.99957831       0.49947040       0.50076889 </v>
    <v>       0.49979694       0.49963581       0.50086376 </v>
   </varray>
  </structure>
  <varray name="primitive_index" >
   <v type="int" >        1 </v>
   <v type="int" >        2 </v>
   <v type="int" >        3 </v>
   <v type="int" >        4 </v>
   <v type="int" >        5 </v>
   <v type="int" >        6 </v>
   <v type="int" >        7 </v>
   <v type="int" >        8 </v>
   <v type="int" >        9 </v>
   <v type="int" >       10 </v>
   <v type="int" >       11 </v>
   <v type="int" >       12 </v>
   <v type="int" >       13 </v>
   <v type="int" >       14 </v>
   <v type="int" >       15 </v>
   <v type="int" >       16 </v>
  </varray>
 </primitive_cell>
 <kpoints>
  <generation param="Gamma">
   <v type="int" name="divisions">       6        6        6 </v>
   <v name="usershift">      0.00000000       0.00000000       0.00000000 </v>
   <v name="genvec1">      0.16666667      -0.00000000       0.00000000 </v>
   <v name="genvec2">     -0.00000000       0.16666667      -0.00000000 </v>
   <v name="genvec3">      0.00000000       0.00000000       0.16666667 </v>
   <v name="shift">      0.00000000       0.00000000       0.00000000 </v>
  </generation>
  <varray name="kpointlist" >
   <v>       0.00000000       0.00000000       0.00000000 </v>
   <v>       0.16666667       0.00000000       0.00000000 </v>
   <v>       0.00000000       0.16666667       0.00000000 </v>
   <v>       0.00000000       0.00000000       0.16666667 </v>
   <v>       0.16666667       0.16666667       0.16666667 </v>
   <v>       0.33333333       0.00000000       0.00000000 </v>
   <v>       0.00000000       0.33333333       0.00000000 </v>
   <v>       0.00000000       0.00000000       0.33333333 </v>
   <v>       0.33333333       0.33333333       0.33333333 </v>
   <v>       0.50000000       0.00000000       0.00000000 </v>
   <v>       0.00000000       0.50000000       0.00000000 </v>
   <v>       0.00000000       0.00000000       0.50000000 </v>
   <v>       0.50000000       0.50000000       0.50000000 </v>
   <v>       0.16666667       0.16666667       0.00000000 </v>
   <v>       0.00000000       0.16666667       0.16666667 </v>
   <v>       0.16666667       0.00000000       0.16666667 </v>
   <v>       0.33333333       0.16666667       0.00000000 </v>
   <v>       0.00000000       0.33333333       0.16666667 </v>
   <v>       0.16666667       0.00000000       0.33333333 </v>
   <v>       0.16666667       0.16666667      -0.16666667 </v>
   <v>       0.33333333       0.16666667       0.33333333 </v>
   <v>       0.16666667       0.33333333       0.00000000 </v>
   <v>       0.16666667      -0.16666667      -0.16666667 </v>
   <v>       0.33333333       0.33333333       0.16666667 </v>
   <v>       0.00000000       0.16666667       0.33333333 </v>
   <v>      -0.16666667       0.16666667      -0.16666667 </v>
   <v>       0.16666667       0.33333333       0.33333333 </v>
   <v>       0.33333333       0.00000000       0.16666667 </v>
   <v>       0.50000000       0.16666667       0.00000000 </v>
   <v>       0.00000000       0.50000000       0.16666667 </v>
   <v>       0.16666667       0.00000000       0.50000000 </v>
   <v>       0.16666667       0.16666667      -0.33333333 </v>
   <v>       0.50000000       0.33333333       0.50000000 </v>
   <v>       0.16666667       0.50000000       0.00000000 </v>
   <v>       0.33333333      -0.16666667      -0.16666667 </v>
   <v>       0.50000000       0.50000000       0.33333333 </v>
   <v>       0.00000000       0.16666667       0.50000000 </v>
   <v>      -0.16666667       0.33333333      -0.16666667 </v>
   <v>       0.33333333       0.50000000       0.50000000 </v>
   <v>       0.50000000       0.00000000       0.16666667 </v>
   <v>      -0.33333333       0.16666667       0.00000000 </v>
   <v>       0.00000000      -0.33333333       0.16666667 </v>
   <v>       0.16666667       0.00000000      -0.33333333 </v>
   <v>       0.16666667       0.16666667       0.50000000 </v>
   <v>      -0.33333333       0.50000000      -0.33333333 </v>
   <v>       0.16666667      -0.33333333       0.00000000 </v>
   <v>       0.50000000      -0.16666667      -0.16666667 </v>
   <v>      -0.33333333      -0.33333333       0.50000000 </v>
   <v>       0.00000000       0.16666667      -0.33333333 </v>
   <v>      -0.16666667       0.50000000      -0.16666667 </v>
   <v>       0.50000000      -0.33333333      -0.33333333 </v>
   <v>      -0.33333333       0.00000000       0.16666667 </v>
   <v>      -0.16666667       0.16666667       0.00000000 </v>
   <v>       0.00000000      -0.16666667       0.16666667 </v>
   <v>       0.16666667       0.00000000      -0.16666667 </v>
   <v>       0.16666667       0.16666667       0.33333333 </v>
   <v>      -0.16666667      -0.33333333      -0.16666667 </v>
   <v>      -0.33333333      -0.16666667      -0.16666667 </v>
   <v>       0.33333333       0.33333333       0.00000000 </v>
   <v>       0.00000000       0.33333333       0.33333333 </v>
   <v>       0.33333333       0.00000000       0.33333333 </v>
   <v>       0.50000000       0.33333333       0.00000000 </v>
   <v>       0.00000000       0.50000000       0.33333333 </v>
   <v>       0.33333333       0.00000000       0.50000000 </v>
   <v>       0.33333333       0.33333333      -0.16666667 </v>
   <v>       0.50000000       0.16666667       0.50000000 </v>
   <v>       0.33333333       0.50000000       0.00000000 </v>
   <v>       0.16666667      -0.33333333      -0.33333333 </v>
   <v>       0.50000000       0.50000000       0.16666667 </v>
   <v>       0.00000000       0.33333333       0.50000000 </v>
   <v>      -0.33333333       0.16666667      -0.33333333 </v>
   <v>       0.16666667       0.50000000       0.50000000 </v>
   <v>       0.50000000       0.00000000       0.33333333 </v>
   <v>      -0.33333333       0.33333333       0.00000000 </v>
   <v>       0.00000000      -0.33333333       0.33333333 </v>
   <v>       0.33333333       0.00000000      -0.33333333 </v>
   <v>       0.33333333       0.33333333      -0.33333333 </v>
   <v>      -0.33333333       0.33333333      -0.33333333 </v>
   <v>       0.33333333      -0.33333333      -0.33333333 </v>
   <v>       0.50000000       0.50000000       0.00000000 </v>
   <v>       0.00000000       0.50000000       0.50000000 </v>
   <v>       0.50000000       0.00000000       0.50000000 </v>
   <v>       0.50000000       0.33333333       0.16666667 </v>
   <v>       0.16666667       0.50000000       0.33333333 </v>
   <v>       0.33333333       0.16666667       0.50000000 </v>
   <v>       0.33333333       0.16666667      -0.16666667 </v>
   <v>       0.50000000       0.16666667       0.33333333 </v>
   <v>       0.16666667      -0.33333333      -0.16666667 </v>
   <v>       0.16666667       0.33333333      -0.16666667 </v>
   <v>       0.16666667      -0.16666667      -0.33333333 </v>
   <v>       0.33333333       0.50000000       0.16666667 </v>
   <v>      -0.16666667       0.16666667      -0.33333333 </v>
   <v>      -0.33333333       0.16666667      -0.16666667 </v>
   <v>       0.16666667       0.33333333       0.50000000 </v>
   <v>      -0.33333333       0.33333333       0.16666667 </v>
   <v>       0.16666667      -0.33333333       0.33333333 </v>
   <v>       0.33333333       0.16666667      -0.33333333 </v>
   <v>      -0.33333333       0.33333333       0.50000000 </v>
   <v>       0.16666667       0.50000000      -0.16666667 </v>
   <v>       0.33333333      -0.16666667      -0.33333333 </v>
   <v>       0.50000000      -0.33333333       0.33333333 </v>
   <v>      -0.16666667       0.16666667       0.50000000 </v>
   <v>      -0.33333333       0.33333333      -0.16666667 </v>
   <v>       0.33333333       0.50000000      -0.33333333 </v>
   <v>       0.50000000      -0.16666667       0.16666667 </v>
   <v>      -0.16666667      -0.33333333       0.33333333 </v>
   <v>      -0.33333333       0.50000000       0.16666667 </v>
   <v>       0.16666667      -0.33333333       0.50000000 </v>
   <v>       0.50000000       0.16666667      -0.33333333 </v>
   <v>       0.50000000       0.33333333      -0.16666667 </v>
   <v>      -0.33333333       0.16666667       0.50000000 </v>
   <v>       0.16666667       0.50000000      -0.33333333 </v>
  </varray>
  <varray name="weights" >
   <v>       0.00462963 </v>
   <v>       0.00925926 </v>
   <v>       0.00925926 </v>
   <v>       0.00925926 </v>
   <v>       0.00925926 </v>
   <v>       0.00925926 </v>
   <v>       0.00925926 </v>
   <v>       0.00925926 </v>
   <v>       0.00925926 </v>
   <v>       0.00462963 </v>
   <v>       0.00462963 </v>
   <v>       0.00462963 </v>
   <v>       0.00462963 </v>
   <v>       0.00925926 </v>
   <v>       0.00925926 </v>
   <v>       0.00925926 </v>
   <v>       0.00925926 </v>
   <v>       0.00925926 </v>
   <v>       0.00925926 </v>
   <v>       0.00925926 </v>
   <v>       0.00925926 </v>
   <v>       0.00925926 </v>
   <v>       0.00925926 </v>
   <v>       0.00925926 </v>
   <v>       0.00925926 </v>
   <v>       0.00925926 </v>
   <v>       0.00925926 </v>
   <v>       0.00925926 </v>
   <v>       0.00925926 </v>
   <v>       0.00925926 </v>
   <v>       0.00925926 </v>
   <v>       0.00925926 </v>
   <v>       0.00925926 </v>
   <v>       0.00925926 </v>
   <v>       0.00925926 </v>
   <v>       0.00925926 </v>
   <v>       0.00925926 </v>
   <v>       0.00925926 </v>
   <v>       0.00925926 </v>
   <v>       0.00925926 </v>
   <v>       0.00925926 </v>
   <v>       0.00925926 </v>
   <v>       0.00925926 </v>
   <v>       0.00925926 </v>
   <v>       0.00925926 </v>
   <v>       0.00925926 </v>
   <v>       0.00925926 </v>
   <v>       0.00925926 </v>
   <v>       0.00925926 </v>
   <v>       0.00925926 </v>
   <v>       0.00925926 </v>
   <v>       0.00925926 </v>
   <v>       0.00925926 </v>
   <v>       0.00925926 </v>
   <v>       0.00925926 </v>
   <v>       0.00925926 </v>
   <v>       0.00925926 </v>
   <v>       0.00925926 </v>
   <v>       0.00925926 </v>
   <v>       0.00925926 </v>
   <v>       0.00925926 </v>
   <v>       0.00925926 </v>
   <v>       0.00925926 </v>
   <v>       0.00925926 </v>
   <v>       0.00925926 </v>
   <v>       0.00925926 </v>
   <v>       0.00925926 </v>
   <v>       0.00925926 </v>
   <v>       0.00925926 </v>
   <v>       0.00925926 </v>
   <v>       0.00925926 </v>
   <v>       0.00925926 </v>
   <v>       0.00925926 </v>
   <v>       0.00925926 </v>
   <v>       0.00925926 </v>
   <v>       0.00925926 </v>
   <v>       0.00925926 </v>
   <v>       0.00925926 </v>
   <v>       0.00925926 </v>
   <v>       0.00462963 </v>
   <v>       0.00462963 </v>
   <v>       0.00462963 </v>
   <v>       0.00925926 </v>
   <v>       0.00925926 </v>
   <v>       0.00925926 </v>
   <v>       0.00925926 </v>
   <v>       0.00925926 </v>
   <v>       0.00925926 </v>
   <v>       0.00925926 </v>
   <v>       0.00925926 </v>
   <v>       0.00925926 </v>
   <v>       0.00925926 </v>
   <v>       0.00925926 </v>
   <v>       0.00925926 </v>
   <v>       0.00925926 </v>
   <v>       0.00925926 </v>
   <v>       0.00925926 </v>
   <v>       0.00925926 </v>
   <v>       0.00925926 </v>
   <v>       0.00925926 </v>
   <v>       0.00925926 </v>
   <v>       0.00925926 </v>
   <v>       0.00925926 </v>
   <v>       0.00925926 </v>
   <v>       0.00925926 </v>
   <v>       0.00925926 </v>
   <v>       0.00925926 </v>
   <v>       0.00925926 </v>
   <v>       0.00925926 </v>
   <v>       0.00925926 </v>
   <v>       0.00925926 </v>
   <v>       0.00925926 </v>
  </varray>
 </kpoints>
 <parameters>
  <separator name="general" >
   <i type="string" name="SYSTEM">unknown system</i>
   <i type="logical" name="LCOMPAT"> F  </i>
  </separator>
  <separator name="electronic" >
   <i type="string" name="PREC">accura</i>
   <i name="ENMAX">    600.00000000</i>
   <i name="ENAUG">    391.91400000</i>
   <i name="EDIFF">      0.00000001</i>
   <i type="int" name="IALGO">    68</i>
   <i type="int" name="IWAVPR">    11</i>
   <i type="int" name="NBANDS">    96</i>
   <i type="int" name="NBANDSLOW">    -1</i>
   <i type="int" name="NBANDSHIGH">    -1</i>
   <i name="NELECT">    160.00000000</i>
   <i type="int" name="TURBO">     0</i>
   <i type="int" name="IRESTART">     0</i>
   <i type="int" name="NREBOOT">     0</i>
   <i type="int" name="NMIN">     0</i>
   <i name="EREF">      0.00000000</i>
   <separator name="electronic smearing" >
    <i type="int" name="ISMEAR">     0</i>
    <i name="SIGMA">      0.01000000</i>
    <i name="KSPACING">      0.50000000</i>
    <i type="logical" name="KGAMMA"> T  </i>
    <i type="logical" name="KBLOWUP"> T  </i>
   </separator>
   <separator name="electronic projectors" >
    <i type="logical" name="LREAL"> F  </i>
    <v name="ROPT">      0.00000000      0.00000000</v>
    <i type="int" name="LMAXPAW">  -100</i>
    <i type="int" name="LMAXMIX">     4</i>
    <i type="logical" name="NLSPLINE"> F  </i>
   </separator>
   <separator name="electronic startup" >
    <i type="int" name="ISTART">     0</i>
    <i type="int" name="ICHARG">     2</i>
    <i type="int" name="INIWAV">     1</i>
   </separator>
   <separator name="electronic spin" >
    <i type="int" name="ISPIN">     1</i>
    <i type="logical" name="LNONCOLLINEAR"> F  </i>
    <v name="MAGMOM">      1.00000000      1.00000000      1.00000000      1.00000000      1.00000000      1.00000000      1.00000000      1.00000000      1.00000000      1.00000000      1.00000000      1.00000000      1.00000000      1.00000000      1.00000000      1.00000000</v>
    <i name="NUPDOWN">     -1.00000000</i>
    <i type="logical" name="LSORBIT"> F  </i>
    <v name="SAXIS">      0.00000000      0.00000000      1.00000000</v>
    <i type="logical" name="LSPIRAL"> F  </i>
    <v name="QSPIRAL">      0.00000000      0.00000000      0.00000000</v>
    <i type="logical" name="LZEROZ"> F  </i>
   </separator>
   <separator name="electronic exchange-correlation" >
    <i type="logical" name="LASPH"> F  </i>
    <i type="logical" name="LMETAGGA"> F  </i>
   </separator>
   <separator name="electronic convergence" >
    <i type="int" name="NELM">   500</i>
    <i type="int" name="NELMDL">     0</i>
    <i type="int" name="NELMIN">     5</i>
    <i name="ENINI">    600.00000000</i>
    <separator name="electronic convergence detail" >
     <i type="logical" name="LDIAG"> T  </i>
     <i type="logical" name="LSUBROT"> F  </i>
     <i name="WEIMIN">      0.00100000</i>
     <i name="EBREAK">      0.00000000</i>
     <i name="DEPER">      0.30000000</i>
     <i type="int" name="NRMM">     4</i>
     <i name="TIME">      0.40000000</i>
    </separator>
   </separator>
   <separator name="electronic mixer" >
    <i name="AMIX">      0.40000000</i>
    <i name="BMIX">      1.00000000</i>
    <i name="AMIN">      0.10000000</i>
    <i name="AMIX_MAG">      1.60000000</i>
    <i name="BMIX_MAG">      1.00000000</i>
    <separator name="electronic mixer details" >
     <i type="int" name="IMIX">     4</i>
     <i type="logical" name="MIXFIRST"> F  </i>
     <i type="int" name="MAXMIX">   -45</i>
     <i name="WC">    100.00000000</i>
     <i type="int" name="INIMIX">     1</i>
     <i type="int" name="MIXPRE">     1</i>
     <i type="int" name="MREMOVE">     5</i>
    </separator>
   </separator>
   <separator name="electronic dipolcorrection" >
    <i type="logical" name="LDIPOL"> F  </i>
    <i type="logical" name="LMONO"> F  </i>
    <i type="int" name="IDIPOL">     0</i>
    <i name="EPSILON">      1.00000000</i>
    <v name="DIPOL">   -100.00000000   -100.00000000   -100.00000000</v>
    <i name="EFIELD">      0.00000000</i>
   </separator>
  </separator>
  <separator name="grids" >
   <i type="int" name="NGX">    80</i>
   <i type="int" name="NGY">    80</i>
   <i type="int" name="NGZ">    80</i>
   <i type="int" name="NGXF">   160</i>
   <i type="int" name="NGYF">   160</i>
   <i type="int" name="NGZF">   160</i>
   <i type="logical" name="ADDGRID"> T  </i>
  </separator>
  <separator name="ionic" >
   <i type="int" name="NSW">   200</i>
   <i type="int" name="IBRION">     2</i>
   <i type="int" name="MDALGO">     0</i>
   <i type="int" name="ISIF">     2</i>
   <i name="PSTRESS">      0.00000000</i>
   <i name="EDIFFG">     -0.00000010</i>
   <i type="int" name="NFREE">     1</i>
   <i name="POTIM">      0.50000000</i>
   <i name="SMASS">     -3.00000000</i>
   <i name="SCALEE">      1.00000000</i>
  </separator>
  <separator name="ionic md" >
   <i name="TEBEG">      0.00010000</i>
   <i name="TEEND">      0.00010000</i>
   <i type="int" name="NBLOCK">     1</i>
   <i type="int" name="KBLOCK">   200</i>
   <i type="int" name="NPACO">   256</i>
   <i name="APACO">     10.00000000</i>
  </separator>
  <separator name="symmetry" >
   <i type="int" name="ISYM">     2</i>
   <i name="SYMPREC">      0.00001000</i>
  </separator>
  <separator name="dos" >
   <i type="int" name="LORBIT">    11</i>
   <v name="RWIGS">     -1.00000000     -1.00000000</v>
   <i type="int" name="NEDOS">  1000</i>
   <i name="EMIN">     10.00000000</i>
   <i name="EMAX">    -10.00000000</i>
   <i name="EFERMI">      0.00000000</i>
  </separator>
  <separator name="writing" >
   <i type="int" name="NWRITE">     2</i>
   <i type="logical" name="LWAVE"> T  </i>
   <i type="logical" name="LDOWNSAMPLE"> F  </i>
   <i type="logical" name="LCHARG"> T  </i>
   <i type="logical" name="LPARD"> F  </i>
   <i type="logical" name="LVTOT"> F  </i>
   <i type="logical" name="LVHAR"> F  </i>
   <i type="logical" name="LELF"> F  </i>
   <i type="logical" name="LOPTICS"> F  </i>
   <v name="STM">      0.00000000      0.00000000      0.00000000      0.00000000      0.00000000      0.00000000      0.00000000</v>
  </separator>
  <separator name="performance" >
   <i type="int" name="NPAR">     8</i>
   <i type="int" name="NSIM">     4</i>
   <i type="int" name="NBLK">    -1</i>
   <i type="logical" name="LPLANE"> T  </i>
   <i type="logical" name="LSCALAPACK"> T  </i>
   <i type="logical" name="LSCAAWARE"> F  </i>
   <i type="logical" name="LSCALU"> F  </i>
   <i type="logical" name="LASYNC"> F  </i>
   <i type="logical" name="LORBITALREAL"> F  </i>
  </separator>
  <separator name="miscellaneous" >
   <i type="int" name="IDIOT">     3</i>
   <i type="int" name="PHON_NSTRUCT">    -1</i>
   <i type="logical" name="LMUSIC"> F  </i>
   <v name="POMASS">    207.20000000    127.60000000</v>
   <v name="DARWINR">      0.00000000      0.00000000</v>
   <v name="DARWINV">      1.00000000      1.00000000</v>
   <i type="logical" name="LCORR"> T  </i>
  </separator>
  <i type="logical" name="GGA_COMPAT"> T  </i>
  <i type="logical" name="LBERRY"> F  </i>
  <i type="int" name="ICORELEVEL">     1</i>
  <i type="int" name="CLNT">     1</i>
  <i type="int" name="CLN">     1</i>
  <i type="int" name="CLL">     0</i>
  <i name="CLZ">      0.00000000</i>
  <i type="logical" name="LDAU"> F  </i>
  <i type="int" name="I_CONSTRAINED_M">     0</i>
  <separator name="electronic exchange-correlation" >
   <i type="string" name="GGA">PS</i>
   <i type="int" name="VOSKOWN">     0</i>
   <i type="logical" name="LHFCALC"> F  </i>
   <i type="string" name="PRECFOCK"></i>
   <i type="logical" name="LSYMGRAD"> F  </i>
   <i type="logical" name="LHFONE"> F  </i>
   <i type="logical" name="LRHFCALC"> F  </i>
   <i type="logical" name="LTHOMAS"> F  </i>
   <i type="logical" name="LMODELHF"> F  </i>
   <i type="logical" name="LFOCKACE"> F  </i>
   <i name="ENCUT4O">     -1.00000000</i>
   <i type="int" name="EXXOEP">     0</i>
   <i type="int" name="FOURORBIT">     0</i>
   <i name="AEXX">      0.00000000</i>
   <i name="HFALPHA">      0.00000000</i>
   <i name="MCALPHA">      0.00000000</i>
   <i name="ALDAX">      1.00000000</i>
   <i name="AGGAX">      1.00000000</i>
   <i name="ALDAC">      1.00000000</i>
   <i name="AGGAC">      1.00000000</i>
   <i type="int" name="NKREDX">     1</i>
   <i type="int" name="NKREDY">     1</i>
   <i type="int" name="NKREDZ">     1</i>
   <i type="logical" name="SHIFTRED"> F  </i>
   <i type="logical" name="ODDONLY"> F  </i>
   <i type="logical" name="EVENONLY"> F  </i>
   <i type="int" name="LMAXFOCK">     0</i>
   <i type="int" name="NMAXFOCKAE">     0</i>
   <i type="logical" name="LFOCKAEDFT"> F  </i>
   <i name="HFSCREEN">      0.00000000</i>
   <i name="HFSCREENC">      0.00000000</i>
   <i type="int" name="NBANDSGWLOW">     0</i>
  </separator>
  <separator name="vdW DFT" >
   <i type="logical" name="LUSE_VDW"> F  </i>
   <i name="Zab_VDW">     -0.84910000</i>
   <i name="PARAM1">      0.12340000</i>
   <i name="PARAM2">      1.00000000</i>
   <i name="PARAM3">      0.00000000</i>
  </separator>
  <separator name="model GW" >
   <i type="int" name="MODEL_GW">     0</i>
   <i name="MODEL_EPS0">     20.05524175</i>
   <i name="MODEL_ALPHA">      1.00000000</i>
  </separator>
  <separator name="linear response parameters" >
   <i type="logical" name="LEPSILON"> F  </i>
   <i type="logical" name="LRPA"> F  </i>
   <i type="logical" name="LNABLA"> F  </i>
   <i type="logical" name="LVEL"> F  </i>
   <i name="CSHIFT">      0.10000000</i>
   <i name="OMEGAMAX">     -1.00000000</i>
   <i name="DEG_THRESHOLD">      0.00200000</i>
   <i name="RTIME">     -0.10000000</i>
   <i name="WPLASMAI">      0.00000000</i>
   <v name="DFIELD">      0.00000000      0.00000000      0.00000000</v>
   <v name="WPLASMA">      0.00000000      0.00000000      0.00000000      0.00000000      0.00000000      0.00000000      0.00000000      0.00000000      0.00000000</v>
  </separator>
  <separator name="orbital magnetization" >
   <i type="logical" name="NUCIND"> F  </i>
   <v name="MAGPOS">      0.00000000      0.00000000      0.00000000</v>
   <i type="logical" name="LNICSALL"> T  </i>
   <i type="logical" name="ORBITALMAG"> F  </i>
   <i type="logical" name="LMAGBLOCH"> F  </i>
   <i type="logical" name="LCHIMAG"> F  </i>
   <i type="logical" name="LGAUGE"> T  </i>
   <i type="int" name="MAGATOM">     0</i>
   <v name="MAGDIPOL">      0.00000000      0.00000000      0.00000000</v>
   <v name="AVECCONST">      0.00000000      0.00000000      0.00000000</v>
  </separator>
  <separator name="response functions" >
   <i type="logical" name="LFINITE_TEMPERATURE"> F  </i>
   <i type="logical" name="LADDER"> F  </i>
   <i type="logical" name="LRPAFORCE"> F  </i>
   <i type="logical" name="LFXC"> F  </i>
   <i type="logical" name="LHARTREE"> T  </i>
   <i type="int" name="IBSE">     0</i>
   <v type="int" name="KPOINT">    -1     0     0     0</v>
   <i type="logical" name="LTCTC"> F  </i>
   <i type="logical" name="LTCTE"> F  </i>
   <i type="logical" name="LTETE"> F  </i>
   <i type="logical" name="LTRIPLET"> F  </i>
   <i type="logical" name="LFXCEPS"> F  </i>
   <i type="logical" name="LFXHEG"> F  </i>
   <i type="int" name="NATURALO">     2</i>
   <i type="logical" name="LHOLEGF"> F  </i>
   <i type="logical" name="L2ORDER"> F  </i>
   <i type="logical" name="LDMP1"> F  </i>
   <i type="logical" name="LMP2LT"> F  </i>
   <i type="logical" name="LSMP2LT"> F  </i>
   <i type="logical" name="LGWLF"> F  </i>
   <i name="ENCUTGW">     -2.00000000</i>
   <i name="ENCUTGWSOFT">     -2.00000000</i>
   <i name="ENCUTLF">     -1.00000000</i>
   <i type="logical" name="LESF_SPLINES"> F  </i>
   <i type="int" name="LMAXMP2">    -1</i>
   <i name="SCISSOR">      0.00000000</i>
   <i type="int" name="NOMEGA">     0</i>
   <i type="int" name="NOMEGAR">     0</i>
   <i type="int" name="NBANDSGW">    -1</i>
   <i type="int" name="NBANDSO">    -1</i>
   <i type="int" name="NBANDSV">    -1</i>
   <i type="int" name="NELMGW">     1</i>
   <i type="int" name="NELMHF">     1</i>
   <i type="int" name="DIM">     3</i>
   <i type="int" name="IESPILON">     4</i>
   <i type="int" name="ANTIRES">     0</i>
   <i name="OMEGAMAX">    -30.00000000</i>
   <i name="OMEGAMIN">    -30.00000000</i>
   <i name="OMEGATL">   -200.00000000</i>
   <i type="int" name="OMEGAGRID">     0</i>
   <i name="CSHIFT">     -0.10000000</i>
   <i type="logical" name="LSELFENERGY"> F  </i>
   <i type="logical" name="LSPECTRAL"> F  </i>
   <i type="logical" name="LSPECTRALGW"> F  </i>
   <i type="logical" name="LSINGLES"> F  </i>
   <i type="logical" name="LFERMIGW"> F  </i>
   <i type="logical" name="ODDONLYGW"> F  </i>
   <i type="logical" name="EVENONLYGW"> F  </i>
   <i type="int" name="NKREDLFX">     1</i>
   <i type="int" name="NKREDLFY">     1</i>
   <i type="int" name="NKREDLFZ">     1</i>
   <i type="int" name="MAXMEM">  2800</i>
   <i type="int" name="TELESCOPE">     0</i>
   <i type="int" name="NTAUPAR">    -1</i>
   <i type="int" name="NOMEGAPAR">    -1</i>
   <i name="DAMP_NEWTON">      0.80000001</i>
   <i name="LAMBDA">      1.00000000</i>
  </separator>
  <separator name="External order field" >
   <i name="OFIELD_KAPPA">      0.00000000</i>
   <v name="OFIELD_K">      0.00000000      0.00000000      0.00000000</v>
   <i name="OFIELD_Q6_NEAR">      0.00000000</i>
   <i name="OFIELD_Q6_FAR">      0.00000000</i>
   <i name="OFIELD_A">      0.00000000</i>
  </separator>
  <separator name="optional k-points parameters" >
   <i type="int" name="KPOINTS_OPT_MODE">     1</i>
   <i type="logical" name="LKPOINTS_OPT"> F  </i>
  </separator>
 </parameters>
 <atominfo>
  <atoms>      16 </atoms>
  <types>       2 </types>
  <array name="atoms" >
   <dimension dim="1">ion</dimension>
   <field type="string">element</field>
   <field type="int">atomtype</field>
   <set>
    <rc><c>Pb</c><c>   1</c></rc>
    <rc><c>Pb</c><c>   1</c></rc>
    <rc><c>Pb</c><c>   1</c></rc>
    <rc><c>Pb</c><c>   1</c></rc>
    <rc><c>Pb</c><c>   1</c></rc>
    <rc><c>Pb</c><c>   1</c></rc>
    <rc><c>Pb</c><c>   1</c></rc>
    <rc><c>Pb</c><c>   1</c></rc>
    <rc><c>Te</c><c>   2</c></rc>
    <rc><c>Te</c><c>   2</c></rc>
    <rc><c>Te</c><c>   2</c></rc>
    <rc><c>Te</c><c>   2</c></rc>
    <rc><c>Te</c><c>   2</c></rc>
    <rc><c>Te</c><c>   2</c></rc>
    <rc><c>Te</c><c>   2</c></rc>
    <rc><c>Te</c><c>   2</c></rc>
   </set>
  </array>
  <array name="atomtypes" >
   <dimension dim="1">type</dimension>
   <field type="int">atomspertype</field>
   <field type="string">element</field>
   <field>mass</field>
   <field>valence</field>
   <field type="string">pseudopotential</field>
   <set>
    <rc><c>   8</c><c>Pb</c><c>    207.20000000</c><c>     14.00000000</c><c>  PAW_PBE Pb_d 06Sep2000                </c></rc>
    <rc><c>   8</c><c>Te</c><c>    127.60000000</c><c>      6.00000000</c><c>  PAW_PBE Te 08Apr2002                  </c></rc>
   </set>
  </array>
 </atominfo>
 <structure name="initialpos" >
  <crystal>
   <varray name="basis" >
    <v>       0.00000000       6.44251660       6.44251660 </v>
    <v>       6.44251660       0.00000000       6.44251660 </v>
    <v>       6.44251660       6.44251660       0.00000000 </v>
   </varray>
   <i name="volume">    534.80644663 </i>
   <varray name="rec_basis" >
    <v>      -0.07760942       0.07760942       0.07760942 </v>
    <v>       0.07760942      -0.07760942       0.07760942 </v>
    <v>       0.07760942       0.07760942      -0.07760942 </v>
   </varray>
  </crystal>
  <varray name="positions" >
   <v>       0.24859428       0.25144069       0.25029412 </v>
   <v>       0.75121883       0.24990423       0.24995270 </v>
   <v>       0.24974603       0.74957542       0.25054301 </v>
   <v>       0.75068377       0.74943573       0.24905031 </v>
   <v>       0.24984131       0.24986265       0.75087769 </v>
   <v>       0.74917214       0.24974251       0.75002643 </v>
   <v>       0.25020280       0.74840766       0.75028821 </v>
   <v>       0.74998577       0.75060848       0.74905670 </v>
   <v>       0.99985281       0.00089526       0.00045304 </v>
   <v>       0.49948385       0.99976920       0.00064355 </v>
   <v>       0.99953963       0.50038148       0.00034469 </v>
   <v>       0.50045390       0.50065763       0.99965620 </v>
   <v>       0.99992529       0.00041396       0.50016771 </v>
   <v>       0.50036506       0.99947814       0.50077689 </v>
   <v>       0.99957831       0.49947040       0.50076889 </v>
   <v>       0.49979694       0.49963581       0.50086376 </v>
  </varray>
 </structure>
 <calculation>
  <scstep>
   <time name="dav">   11.94   12.12</time>
   <time name="total">   12.25   12.48</time>
   <energy>
    <i name="alphaZ">    290.84593586 </i>
    <i name="ewald"> -11146.51992319 </i>
    <i name="hartreedc">  -4022.63571248 </i>
    <i name="XCdc">     91.59688756 </i>
    <i name="pawpsdc">  13132.28373248 </i>
    <i name="pawaedc"> -12699.49664494 </i>
    <i name="eentropy">     -0.00031223 </i>
    <i name="bandstr">   1149.50980950 </i>
    <i name="atom">  15084.07529148 </i>
    <i name="e_fr_energy">   1879.65906403 </i>
    <i name="e_wo_entrp">   1879.65937627 </i>
    <i name="e_0_energy">   1879.65922015 </i>
   </energy>
  </scstep>
  <scstep>
   <time name="dav">   11.89   11.91</time>
   <time name="total">   11.90   11.91</time>
   <energy>
    <i name="e_fr_energy">    211.60781041 </i>
    <i name="e_wo_entrp">    211.60814119 </i>
    <i name="e_0_energy">    211.60797580 </i>
   </energy>
  </scstep>
  <scstep>
   <time name="dav">   13.82   13.84</time>
   <time name="total">   13.83   13.84</time>
   <energy>
    <i name="e_fr_energy">    -46.35845928 </i>
    <i name="e_wo_entrp">    -46.35845928 </i>
    <i name="e_0_energy">    -46.35845928 </i>
   </energy>
  </scstep>
  <scstep>
   <time name="dav">   13.77   13.78</time>
   <time name="total">   13.78   13.78</time>
   <energy>
    <i name="e_fr_energy">    -66.05346540 </i>
    <i name="e_wo_entrp">    -66.05346540 </i>
    <i name="e_0_energy">    -66.05346540 </i>
   </energy>
  </scstep>
  <scstep>
   <time name="dav">   14.05   14.06</time>
   <time name="total">   15.04   15.05</time>
   <energy>
    <i name="e_fr_energy">    -66.96873304 </i>
    <i name="e_wo_entrp">    -66.96873304 </i>
    <i name="e_0_energy">    -66.96873304 </i>
   </energy>
  </scstep>
  <scstep>
   <time name="diag">    3.26    3.26</time>
   <time name="diis">   10.96   10.97</time>
   <time name="orth">    0.29    0.29</time>
   <time name="total">   15.78   15.81</time>
   <energy>
    <i name="e_fr_energy">    -66.10442310 </i>
    <i name="e_wo_entrp">    -66.10442310 </i>
    <i name="e_0_energy">    -66.10442310 </i>
   </energy>
  </scstep>
  <scstep>
   <time name="diag">    3.26    3.26</time>
   <time name="diis">   11.14   11.14</time>
   <time name="orth">    0.29    0.29</time>
   <time name="total">   15.96   15.98</time>
   <energy>
    <i name="e_fr_energy">    -66.10991294 </i>
    <i name="e_wo_entrp">    -66.10991294 </i>
    <i name="e_0_energy">    -66.10991294 </i>
   </energy>
  </scstep>
  <scstep>
   <time name="diag">    3.24    3.24</time>
   <time name="diis">   11.02   11.02</time>
   <time name="orth">    0.29    0.29</time>
   <time name="total">   15.82   15.85</time>
   <energy>
    <i name="e_fr_energy">    -66.08529154 </i>
    <i name="e_wo_entrp">    -66.08529154 </i>
    <i name="e_0_energy">    -66.08529154 </i>
   </energy>
  </scstep>
  <scstep>
   <time name="diag">    3.25    3.25</time>
   <time name="diis">   12.26   12.26</time>
   <time name="orth">    0.29    0.29</time>
   <time name="total">   17.08   17.10</time>
   <energy>
    <i name="e_fr_energy">    -66.07222769 </i>
    <i name="e_wo_entrp">    -66.07222769 </i>
    <i name="e_0_energy">    -66.07222769 </i>
   </energy>
  </scstep>
  <scstep>
   <time name="diag">    3.25    3.25</time>
   <time name="diis">   12.43   12.44</time>
   <time name="orth">    0.29    0.29</time>
   <time name="total">   17.25   17.27</time>
   <energy>
    <i name="e_fr_energy">    -66.07498698 </i>
    <i name="e_wo_entrp">    -66.07498698 </i>
    <i name="e_0_energy">    -66.07498698 </i>
   </energy>
  </scstep>
  <scstep>
   <time name="diag">    3.25    3.26</time>
   <time name="diis">   15.17   15.18</time>
   <time name="orth">    0.29    0.29</time>
   <time name="total">   20.01   20.02</time>
   <energy>
    <i name="e_fr_energy">    -66.07490928 </i>
    <i name="e_wo_entrp">    -66.07490928 </i>
    <i name="e_0_energy">    -66.07490928 </i>
   </energy>
  </scstep>
  <scstep>
   <time name="diag">    3.25    3.25</time>
   <time name="diis">   10.78   10.79</time>
   <time name="orth">    0.31    0.31</time>
   <time name="total">   15.71   15.73</time>
   <energy>
    <i name="e_fr_energy">    -66.07915102 </i>
    <i name="e_wo_entrp">    -66.07915102 </i>
    <i name="e_0_energy">    -66.07915102 </i>
   </energy>
  </scstep>
  <scstep>
   <time name="diag">    3.29    3.29</time>
   <time name="diis">   13.97   13.98</time>
   <time name="orth">    0.29    0.29</time>
   <time name="total">   18.84   18.85</time>
   <energy>
    <i name="e_fr_energy">    -66.07355700 </i>
    <i name="e_wo_entrp">    -66.07355700 </i>
    <i name="e_0_energy">    -66.07355700 </i>
   </energy>
  </scstep>
  <scstep>
   <time name="diag">    3.27    3.27</time>
   <time name="diis">   10.76   10.76</time>
   <time name="orth">    0.29    0.29</time>
   <time name="total">   15.60   15.62</time>
   <energy>
    <i name="e_fr_energy">    -66.07366177 </i>
    <i name="e_wo_entrp">    -66.07366177 </i>
    <i name="e_0_energy">    -66.07366177 </i>
   </energy>
  </scstep>
  <scstep>
   <time name="diag">    3.25    3.25</time>
   <time name="diis">   12.89   12.90</time>
   <time name="orth">    0.29    0.29</time>
   <time name="total">   17.72   17.73</time>
   <energy>
    <i name="e_fr_energy">    -66.07373796 </i>
    <i name="e_wo_entrp">    -66.07373796 </i>
    <i name="e_0_energy">    -66.07373796 </i>
   </energy>
  </scstep>
  <scstep>
   <time name="diag">    3.25    3.25</time>
   <time name="diis">   12.44   12.45</time>
   <time name="orth">    0.29    0.29</time>
   <time name="total">   17.26   17.29</time>
   <energy>
    <i name="e_fr_energy">    -66.07368799 </i>
    <i name="e_wo_entrp">    -66.07368799 </i>
    <i name="e_0_energy">    -66.07368799 </i>
   </energy>
  </scstep>
  <scstep>
   <time name="diag">    3.26    3.26</time>
   <time name="diis">   10.94   10.94</time>
   <time name="orth">    0.29    0.29</time>
   <time name="total">   15.78   15.79</time>
   <energy>
    <i name="e_fr_energy">    -66.07363620 </i>
    <i name="e_wo_entrp">    -66.07363620 </i>
    <i name="e_0_energy">    -66.07363620 </i>
   </energy>
  </scstep>
  <scstep>
   <time name="diag">    3.25    3.26</time>
   <time name="diis">   12.29   12.30</time>
   <time name="orth">    0.29    0.29</time>
   <time name="total">   17.14   17.16</time>
   <energy>
    <i name="e_fr_energy">    -66.07363928 </i>
    <i name="e_wo_entrp">    -66.07363928 </i>
    <i name="e_0_energy">    -66.07363928 </i>
   </energy>
  </scstep>
  <scstep>
   <time name="diag">    3.26    3.26</time>
   <time name="diis">   10.72   10.73</time>
   <time name="orth">    0.29    0.29</time>
   <time name="total">   15.56   15.57</time>
   <energy>
    <i name="e_fr_energy">    -66.07363292 </i>
    <i name="e_wo_entrp">    -66.07363292 </i>
    <i name="e_0_energy">    -66.07363292 </i>
   </energy>
  </scstep>
  <scstep>
   <time name="diag">    3.26    3.26</time>
   <time name="diis">   11.02   11.03</time>
   <time name="orth">    0.29    0.29</time>
   <time name="total">   15.85   15.88</time>
   <energy>
    <i name="e_fr_energy">    -66.07363266 </i>
    <i name="e_wo_entrp">    -66.07363266 </i>
    <i name="e_0_energy">    -66.07363266 </i>
   </energy>
  </scstep>
  <scstep>
   <time name="diag">    3.26    3.26</time>
   <time name="diis">   15.33   15.34</time>
   <time name="orth">    0.29    0.29</time>
   <time name="total">   20.18   20.19</time>
   <energy>
    <i name="e_fr_energy">    -66.07363310 </i>
    <i name="e_wo_entrp">    -66.07363310 </i>
    <i name="e_0_energy">    -66.07363310 </i>
   </energy>
  </scstep>
  <scstep>
   <time name="diag">    3.25    3.26</time>
   <time name="diis">   13.25   13.26</time>
   <time name="orth">    0.29    0.29</time>
   <time name="total">   18.08   18.10</time>
   <energy>
    <i name="e_fr_energy">    -66.07363274 </i>
    <i name="e_wo_entrp">    -66.07363274 </i>
    <i name="e_0_energy">    -66.07363274 </i>
   </energy>
  </scstep>
  <scstep>
   <time name="diag">    3.26    3.26</time>
   <time name="diis">   11.98   11.99</time>
   <time name="orth">    0.29    0.29</time>
   <time name="total">   16.83   16.84</time>
   <energy>
    <i name="e_fr_energy">    -66.07363251 </i>
    <i name="e_wo_entrp">    -66.07363251 </i>
    <i name="e_0_energy">    -66.07363251 </i>
   </energy>
  </scstep>
  <scstep>
   <time name="diag">    3.26    3.27</time>
   <time name="diis">    8.72    8.73</time>
   <time name="orth">    0.29    0.29</time>
   <time name="total">   13.61   13.64</time>
   <energy>
    <i name="e_fr_energy">    -66.07363245 </i>
    <i name="e_wo_entrp">    -66.07363245 </i>
    <i name="e_0_energy">    -66.07363245 </i>
   </energy>
  </scstep>
  <scstep>
   <time name="diag">    3.26    3.26</time>
   <time name="diis">    6.69    6.70</time>
   <time name="orth">    0.29    0.29</time>
   <time name="total">   10.62   10.63</time>
   <energy>
    <i name="alphaZ">    290.84593586 </i>
    <i name="ewald"> -11146.51992319 </i>
    <i name="hartreedc">  -3990.29497434 </i>
    <i name="XCdc">     92.07952665 </i>
    <i name="pawpsdc">  14948.42090828 </i>
    <i name="pawaedc"> -14512.65686018 </i>
    <i name="eentropy">     -0.00000000 </i>
    <i name="bandstr">   -832.02353700 </i>
    <i name="atom">  15084.07529148 </i>
    <i name="e_fr_energy">    -66.07363245 </i>
    <i name="e_wo_entrp">    -66.07363245 </i>
    <i name="e_0_energy">    -66.07363245 </i>
   </energy>
  </scstep>
  <structure>
   <crystal>
    <varray name="basis" >
     <v>       0.00000000       6.44251660       6.44251660 </v>
     <v>       6.44251660       0.00000000       6.44251660 </v>
     <v>       6.44251660       6.44251660       0.00000000 </v>
    </varray>
    <i name="volume">    534.80644663 </i>
    <varray name="rec_basis" >
     <v>      -0.07760942       0.07760942       0.07760942 </v>
     <v>       0.07760942      -0.07760942       0.07760942 </v>
     <v>       0.07760942       0.07760942      -0.07760942 </v>
    </varray>
   </crystal>
   <varray name="positions" >
    <v>       0.24859428       0.25144069       0.25029412 </v>
    <v>       0.75121883       0.24990423       0.24995270 </v>
    <v>       0.24974603       0.74957542       0.25054301 </v>
    <v>       0.75068377       0.74943573       0.24905031 </v>
    <v>       0.24984131       0.24986265       0.75087769 </v>
    <v>       0.74917214       0.24974251       0.75002643 </v>
    <v>       0.25020280       0.74840766       0.75028821 </v>
    <v>       0.74998577       0.75060848       0.74905670 </v>
    <v>       0.99985281       0.00089526       0.00045304 </v>
    <v>       0.49948385       0.99976920       0.00064355 </v>
    <v>       0.99953963       0.50038148       0.00034469 </v>
    <v>       0.50045390       0.50065763       0.99965620 </v>
    <v>       0.99992529       0.00041396       0.50016771 </v>
    <v>       0.50036506       0.99947814       0.50077689 </v>
    <v>       0.99957831       0.49947040       0.50076889 </v>
    <v>       0.49979694       0.49963581       0.50086376 </v>
   </varray>
  </structure>
  <varray name="forces" >
   <v>      -0.02482598       0.03179875       0.01272017 </v>
   <v>      -0.00731375      -0.01982775      -0.04024987 </v>
   <v>      -0.00776134      -0.01114910      -0.00022055 </v>
   <v>       0.04293222       0.00275172       0.00425748 </v>
   <v>      -0.03400465      -0.00770383      -0.00381681 </v>
   <v>       0.01096389       0.02167883       0.00079124 </v>
   <v>       0.02584296       0.00421649       0.04058071 </v>
   <v>       0.01435611      -0.00985416      -0.00913930 </v>
   <v>      -0.02451758       0.00029709      -0.02300102 </v>
   <v>       0.00510607       0.00676704       0.00344942 </v>
   <v>      -0.00980568       0.00775652       0.00206412 </v>
   <v>       0.00413865       0.00762140      -0.02152118 </v>
   <v>      -0.00506834       0.00997066       0.00392204 </v>
   <v>       0.00273812      -0.03106800       0.00292178 </v>
   <v>       0.00705243      -0.00147134       0.01067184 </v>
   <v>       0.00016685      -0.01178433       0.01656994 </v>
  </varray>
  <varray name="stress" >
   <v>       0.11713808       0.00155934      -0.00009167 </v>
   <v>       0.00155943       0.10633897      -0.00156655 </v>
   <v>      -0.00009156      -0.00156664       0.10158725 </v>
  </varray>
  <energy>
   <i name="e_fr_energy">    -66.07363245 </i>
   <i name="e_wo_entrp">    -66.07363245 </i>
   <i name="e_0_energy">    -66.07363245 </i>
  </energy>
  <time name="totalsc">  420.68  421.42</time>
 </calculation>
 <calculation>
  <scstep>
   <time name="dav">   13.26   13.26</time>
   <time name="total">   14.53   14.53</time>
   <energy>
    <i name="alphaZ">    290.84593586 </i>
    <i name="ewald"> -11146.56701541 </i>
    <i name="hartreedc">  -3990.25051142 </i>
    <i name="XCdc">     92.07925073 </i>
    <i name="pawpsdc">  14948.45042037 </i>
    <i name="pawaedc"> -14512.68638949 </i>
    <i name="eentropy">     -0.00000000 </i>
    <i name="bandstr">   -832.02091645 </i>
    <i name="atom">  15084.07529148 </i>
    <i name="e_fr_energy">    -66.07393434 </i>
    <i name="e_wo_entrp">    -66.07393434 </i>
    <i name="e_0_energy">    -66.07393434 </i>
   </energy>
  </scstep>
  <scstep>
   <time name="diag">    3.26    3.26</time>
   <time name="diis">   12.02   12.03</time>
   <time name="orth">    0.29    0.29</time>
   <time name="total">   16.86   16.88</time>
   <energy>
    <i name="e_fr_energy">    -66.07413239 </i>
    <i name="e_wo_entrp">    -66.07413239 </i>
    <i name="e_0_energy">    -66.07413239 </i>
   </energy>
  </scstep>
  <scstep>
   <time name="diag">    3.26    3.26</time>
   <time name="diis">   14.18   14.19</time>
   <time name="orth">    0.29    0.29</time>
   <time name="total">   19.02   19.05</time>
   <energy>
    <i name="e_fr_energy">    -66.07422031 </i>
    <i name="e_wo_entrp">    -66.07422031 </i>
    <i name="e_0_energy">    -66.07422031 </i>
   </energy>
  </scstep>
  <scstep>
   <time name="diag">    3.33    3.34</time>
   <time name="diis">   13.30   13.30</time>
   <time name="orth">    0.29    0.29</time>
   <time name="total">   18.21   18.24</time>
   <energy>
    <i name="e_fr_energy">    -66.07422508 </i>
    <i name="e_wo_entrp">    -66.07422508 </i>
    <i name="e_0_energy">    -66.07422508 </i>
   </energy>
  </scstep>
  <scstep>
   <time name="diag">    3.48    3.49</time>
   <time name="diis">   13.70   13.71</time>
   <time name="orth">    0.29    0.29</time>
   <time name="total">   18.77   18.80</time>
   <energy>
    <i name="e_fr_energy">    -66.07422556 </i>
    <i name="e_wo_entrp">    -66.07422556 </i>
    <i name="e_0_energy">    -66.07422556 </i>
   </energy>
  </scstep>
  <scstep>
   <time name="diag">    3.32    3.32</time>
   <time name="diis">   12.56   12.57</time>
   <time name="orth">    0.29    0.29</time>
   <time name="total">   17.47   17.49</time>
   <energy>
    <i name="e_fr_energy">    -66.07422562 </i>
    <i name="e_wo_entrp">    -66.07422562 </i>
    <i name="e_0_energy">    -66.07422562 </i>
   </energy>
  </scstep>
  <scstep>
   <time name="diag">    3.36    3.36</time>
   <time name="diis">   13.60   13.61</time>
   <time name="orth">    0.29    0.29</time>
   <time name="total">   18.54   18.56</time>
   <energy>
    <i name="e_fr_energy">    -66.07422570 </i>
    <i name="e_wo_entrp">    -66.07422570 </i>
    <i name="e_0_energy">    -66.07422570 </i>
   </energy>
  </scstep>
  <scstep>
   <time name="diag">    3.27    3.28</time>
   <time name="diis">   11.72   11.72</time>
   <time name="orth">    0.29    0.29</time>
   <time name="total">   16.57   16.60</time>
   <energy>
    <i name="e_fr_energy">    -66.07422573 </i>
    <i name="e_wo_entrp">    -66.07422573 </i>
    <i name="e_0_energy">    -66.07422573 </i>
   </energy>
  </scstep>
  <scstep>
   <time name="diag">    3.35    3.35</time>
   <time name="diis">    6.71    6.71</time>
   <time name="orth">    0.29    0.29</time>
   <time name="total">   11.64   11.66</time>
   <energy>
    <i name="e_fr_energy">    -66.07422570 </i>
    <i name="e_wo_entrp">    -66.07422570 </i>
    <i name="e_0_energy">    -66.07422570 </i>
   </energy>
  </scstep>
  <scstep>
   <time name="diag">    3.27    3.27</time>
   <time name="diis">    6.66    6.67</time>
   <time name="orth">    0.29    0.29</time>
   <time name="total">   10.60   10.61</time>
   <energy>
    <i name="alphaZ">    290.84593586 </i>
    <i name="ewald"> -11146.56701541 </i>
    <i name="hartreedc">  -3990.24756402 </i>
    <i name="XCdc">     92.07910578 </i>
    <i name="pawpsdc">  14948.43275445 </i>
    <i name="pawaedc"> -14512.66836099 </i>
    <i name="eentropy">     -0.00000000 </i>
    <i name="bandstr">   -832.02437284 </i>
    <i name="atom">  15084.07529148 </i>
    <i name="e_fr_energy">    -66.07422571 </i>
    <i name="e_wo_entrp">    -66.07422571 </i>
    <i name="e_0_energy">    -66.07422571 </i>
   </energy>
  </scstep>
  <structure>
   <crystal>
    <varray name="basis" >
     <v>       0.00000000       6.44251660       6.44251660 </v>
     <v>       6.44251660       0.00000000       6.44251660 </v>
     <v>       6.44251660       6.44251660       0.00000000 </v>
    </varray>
    <i name="volume">    534.80644663 </i>
    <varray name="rec_basis" >
     <v>      -0.07760942       0.07760942       0.07760942 </v>
     <v>       0.07760942      -0.07760942       0.07760942 </v>
     <v>       0.07760942       0.07760942      -0.07760942 </v>
    </varray>
   </crystal>
   <varray name="positions" >
    <v>       0.24885392       0.25127631       0.25027260 </v>
    <v>       0.75102127       0.24980038       0.25000178 </v>
    <v>       0.24973252       0.74958728       0.25047303 </v>
    <v>       0.75054927       0.74960211       0.24920542 </v>
    <v>       0.24992550       0.24974988       0.75073582 </v>
    <v>       0.74921522       0.24970536       0.75014569 </v>
    <v>       0.25027377       0.74864057       0.75024881 </v>
    <v>       0.74986091       0.75066490       0.74910777 </v>
    <v>       0.99985960       0.00071623       0.00044847 </v>
    <v>       0.49950299       0.99977589       0.00067509 </v>
    <v>       0.99961311       0.50032345       0.00032929 </v>
    <v>       0.50038636       0.50056401       0.99978081 </v>
    <v>       0.99999628       0.00037234       0.50017138 </v>
    <v>       0.50024942       0.99961565       0.50065989 </v>
    <v>       0.99958636       0.49954227       0.50074983 </v>
    <v>       0.49981423       0.49974260       0.50075823 </v>
   </varray>
  </structure>
  <varray name="forces" >
   <v>      -0.02069743       0.02200422       0.00886852 </v>
   <v>      -0.00405159      -0.01520489      -0.02892115 </v>
   <v>      -0.00459787      -0.00746772      -0.00060911 </v>
   <v>       0.03155313       0.00341619       0.00135745 </v>
   <v>      -0.02344076      -0.00740557      -0.00122746 </v>
   <v>       0.00779252       0.01664633       0.00198589 </v>
   <v>       0.02059460       0.00183971       0.02956193 </v>
   <v>       0.01182859      -0.00253579      -0.00635537 </v>
   <v>      -0.02034930      -0.00030114      -0.01805994 </v>
   <v>       0.00381597       0.00484709       0.00347897 </v>
   <v>      -0.00814926       0.00514547       0.00152961 </v>
   <v>       0.00280802       0.00644047      -0.01729978 </v>
   <v>      -0.00399854       0.00777325       0.00182557 </v>
   <v>       0.00185270      -0.02482557       0.00254589 </v>
   <v>       0.00607329      -0.00111666       0.00879967 </v>
   <v>      -0.00103407      -0.00925541       0.01251930 </v>
  </varray>
  <varray name="stress" >
   <v>       0.11469337       0.00105242       0.00038217 </v>
   <v>       0.00105253       0.10731938      -0.00094313 </v>
   <v>       0.00038202      -0.00094346       0.10203036 </v>
  </varray>
  <energy>
   <i name="e_fr_energy">    -66.07422571 </i>
   <i name="e_wo_entrp">    -66.07422571 </i>
   <i name="e_0_energy">    -66.07422571 </i>
  </energy>
  <time name="totalsc">  179.18  179.47</time>
 </calculation>
 <calculation>
  <scstep>
   <time name="dav">   13.15   13.15</time>
   <time name="total">   14.42   14.42</time>
   <energy>
    <i name="alphaZ">    290.84593586 </i>
    <i name="ewald"> -11146.62774383 </i>
    <i name="hartreedc">  -3990.19304673 </i>
    <i name="XCdc">     92.07873317 </i>
    <i name="pawpsdc">  14948.43172875 </i>
    <i name="pawaedc"> -14512.66732645 </i>
    <i name="eentropy">     -0.00000000 </i>
    <i name="bandstr">   -832.01574305 </i>
    <i name="atom">  15084.07529148 </i>
    <i name="e_fr_energy">    -66.07217081 </i>
    <i name="e_wo_entrp">    -66.07217081 </i>
    <i name="e_0_energy">    -66.07217081 </i>
   </energy>
  </scstep>
  <scstep>
   <time name="diag">    3.27    3.27</time>
   <time name="diis">   11.98   11.99</time>
   <time name="orth">    0.29    0.29</time>
   <time name="total">   16.84   16.86</time>
   <energy>
    <i name="e_fr_energy">    -66.07391508 </i>
    <i name="e_wo_entrp">    -66.07391508 </i>
    <i name="e_0_energy">    -66.07391508 </i>
   </energy>
  </scstep>
  <scstep>
   <time name="diag">    3.33    3.33</time>
   <time name="diis">   14.19   14.20</time>
   <time name="orth">    0.30    0.30</time>
   <time name="total">   19.21   19.23</time>
   <energy>
    <i name="e_fr_energy">    -66.07489983 </i>
    <i name="e_wo_entrp">    -66.07489983 </i>
    <i name="e_0_energy">    -66.07489983 </i>
   </energy>
  </scstep>
  <scstep>
   <time name="diag">    3.26    3.26</time>
   <time name="diis">   15.40   15.41</time>
   <time name="orth">    0.29    0.29</time>
   <time name="total">   20.23   20.26</time>
   <energy>
    <i name="e_fr_energy">    -66.07497855 </i>
    <i name="e_wo_entrp">    -66.07497855 </i>
    <i name="e_0_energy">    -66.07497855 </i>
   </energy>
  </scstep>
  <scstep>
   <time name="diag">    3.26    3.26</time>
   <time name="diis">   13.82   13.83</time>
   <time name="orth">    0.29    0.29</time>
   <time name="total">   18.66   18.69</time>
   <energy>
    <i name="e_fr_energy">    -66.07498282 </i>
    <i name="e_wo_entrp">    -66.07498282 </i>
    <i name="e_0_energy">    -66.07498282 </i>
   </energy>
  </scstep>
  <scstep>
   <time name="diag">    3.26    3.26</time>
   <time name="diis">   11.14   11.14</time>
   <time name="orth">    0.29    0.29</time>
   <time name="total">   15.98   15.99</time>
   <energy>
    <i name="e_fr_energy">    -66.07498347 </i>
    <i name="e_wo_entrp">    -66.07498347 </i>
    <i name="e_0_energy">    -66.07498347 </i>
   </energy>
  </scstep>
  <scstep>
   <time name="diag">    3.30    3.30</time>
   <time name="diis">   14.55   14.56</time>
   <time name="orth">    0.29    0.29</time>
   <time name="total">   19.43   19.45</time>
   <energy>
    <i name="e_fr_energy">    -66.07498432 </i>
    <i name="e_wo_entrp">    -66.07498432 </i>
    <i name="e_0_energy">    -66.07498432 </i>
   </energy>
  </scstep>
  <scstep>
   <time name="diag">    3.26    3.27</time>
   <time name="diis">   14.11   14.12</time>
   <time name="orth">    0.29    0.29</time>
   <time name="total">   18.95   18.98</time>
   <energy>
    <i name="e_fr_energy">    -66.07498442 </i>
    <i name="e_wo_entrp">    -66.07498442 </i>
    <i name="e_0_energy">    -66.07498442 </i>
   </energy>
  </scstep>
  <scstep>
   <time name="diag">    3.26    3.27</time>
   <time name="diis">   13.62   13.63</time>
   <time name="orth">    0.29    0.29</time>
   <time name="total">   18.46   18.48</time>
   <energy>
    <i name="e_fr_energy">    -66.07498445 </i>
    <i name="e_wo_entrp">    -66.07498445 </i>
    <i name="e_0_energy">    -66.07498445 </i>
   </energy>
  </scstep>
  <scstep>
   <time name="diag">    3.27    3.27</time>
   <time name="diis">   11.16   11.17</time>
   <time name="orth">    0.29    0.29</time>
   <time name="total">   16.01   16.02</time>
   <energy>
    <i name="e_fr_energy">    -66.07498436 </i>
    <i name="e_wo_entrp">    -66.07498436 </i>
    <i name="e_0_energy">    -66.07498436 </i>
   </energy>
  </scstep>
  <scstep>
   <time name="diag">    3.26    3.26</time>
   <time name="diis">   11.48   11.48</time>
   <time name="orth">    0.30    0.30</time>
   <time name="total">   16.32   16.35</time>
   <energy>
    <i name="e_fr_energy">    -66.07498440 </i>
    <i name="e_wo_entrp">    -66.07498440 </i>
    <i name="e_0_energy">    -66.07498440 </i>
   </energy>
  </scstep>
  <scstep>
   <time name="diag">    3.26    3.26</time>
   <time name="diis">    6.68    6.68</time>
   <time name="orth">    0.29    0.29</time>
   <time name="total">   10.61   10.62</time>
   <energy>
    <i name="alphaZ">    290.84593586 </i>
    <i name="ewald"> -11146.62774383 </i>
    <i name="hartreedc">  -3990.19107879 </i>
    <i name="XCdc">     92.07874272 </i>
    <i name="pawpsdc">  14948.27560912 </i>
    <i name="pawaedc"> -14512.50990155 </i>
    <i name="eentropy">     -0.00000000 </i>
    <i name="bandstr">   -832.02183940 </i>
    <i name="atom">  15084.07529148 </i>
    <i name="e_fr_energy">    -66.07498440 </i>
    <i name="e_wo_entrp">    -66.07498440 </i>
    <i name="e_0_energy">    -66.07498440 </i>
   </energy>
  </scstep>
  <structure>
   <crystal>
    <varray name="basis" >
     <v>       0.00000000       6.44251660       6.44251660 </v>
     <v>       6.44251660       0.00000000       6.44251660 </v>
     <v>       6.44251660       6.44251660       0.00000000 </v>
    </varray>
    <i name="volume">    534.80644663 </i>
    <varray name="rec_basis" >
     <v>      -0.07760942       0.07760942       0.07760942 </v>
     <v>       0.07760942      -0.07760942       0.07760942 </v>
     <v>       0.07760942       0.07760942      -0.07760942 </v>
    </varray>
   </crystal>
   <varray name="positions" >
    <v>       0.24961537       0.25079421       0.25020949 </v>
    <v>       0.75044189       0.24949583       0.25014572 </v>
    <v>       0.24969290       0.74962206       0.25026780 </v>
    <v>       0.75015481       0.75009007       0.24966031 </v>
    <v>       0.25017238       0.24941917       0.75031974 </v>
    <v>       0.74934157       0.24959639       0.75049544 </v>
    <v>       0.25048190       0.74932365       0.75013328 </v>
    <v>       0.74949471       0.75083039       0.74925756 </v>
    <v>       0.99987951       0.00019118       0.00043508 </v>
    <v>       0.49955910       0.99979553       0.00076759 </v>
    <v>       0.99982862       0.50015328       0.00028412 </v>
    <v>       0.50018829       0.50028945       0.00014626 </v>
    <v>       0.00020448       0.00025027       0.50018214 </v>
    <v>       0.49991029       0.00001895       0.50031672 </v>
    <v>       0.99960994       0.49975305       0.50069393 </v>
    <v>       0.49986495       0.50005578       0.50044871 </v>
   </varray>
  </structure>
  <varray name="forces" >
   <v>      -0.00901367      -0.00660894      -0.00233910 </v>
   <v>       0.00538352      -0.00197732       0.00374564 </v>
   <v>       0.00457584       0.00319309      -0.00174986 </v>
   <v>      -0.00107190       0.00540374      -0.00718008 </v>
   <v>       0.00714861      -0.00668354       0.00629294 </v>
   <v>      -0.00134755       0.00226074       0.00549558 </v>
   <v>       0.00538206      -0.00508509      -0.00217856 </v>
   <v>       0.00459163       0.01880351       0.00167965 </v>
   <v>      -0.00805196      -0.00203965      -0.00362442 </v>
   <v>      -0.00003235      -0.00072164       0.00358903 </v>
   <v>      -0.00350445      -0.00255932       0.00000202 </v>
   <v>      -0.00108361       0.00293942      -0.00492345 </v>
   <v>      -0.00089362       0.00146316      -0.00429379 </v>
   <v>      -0.00070867      -0.00633261       0.00143262 </v>
   <v>       0.00326730      -0.00006373       0.00334995 </v>
   <v>      -0.00464118      -0.00199183       0.00070183 </v>
  </varray>
  <varray name="stress" >
   <v>       0.09991269       0.00018052       0.00054853 </v>
   <v>       0.00018058       0.09964128      -0.00028022 </v>
   <v>       0.00054848      -0.00027999       0.09473798 </v>
  </varray>
  <energy>
   <i name="e_fr_energy">    -66.07498440 </i>
   <i name="e_wo_entrp">    -66.07498440 </i>
   <i name="e_0_energy">    -66.07498440 </i>
  </energy>
  <time name="totalsc">  222.10  222.38</time>
 </calculation>
 <calculation>
  <scstep>
   <time name="dav">   13.27   13.27</time>
   <time name="total">   14.54   14.54</time>
   <energy>
    <i name="alphaZ">    290.84593586 </i>
    <i name="ewald"> -11146.63527254 </i>
    <i name="hartreedc">  -3990.18581032 </i>
    <i name="XCdc">     92.07874624 </i>
    <i name="pawpsdc">  14948.26994789 </i>
    <i name="pawaedc"> -14512.50406921 </i>
    <i name="eentropy">     -0.00000000 </i>
    <i name="bandstr">   -832.01977052 </i>
    <i name="atom">  15084.07529148 </i>
    <i name="e_fr_energy">    -66.07500114 </i>
    <i name="e_wo_entrp">    -66.07500114 </i>
    <i name="e_0_energy">    -66.07500114 </i>
   </energy>
  </scstep>
  <scstep>
   <time name="diag">    3.25    3.26</time>
   <time name="diis">   12.08   12.08</time>
   <time name="orth">    0.29    0.29</time>
   <time name="total">   16.91   16.93</time>
   <energy>
    <i name="e_fr_energy">    -66.07504713 </i>
    <i name="e_wo_entrp">    -66.07504713 </i>
    <i name="e_0_energy">    -66.07504713 </i>
   </energy>
  </scstep>
  <scstep>
   <time name="diag">    3.26    3.26</time>
   <time name="diis">   14.19   14.20</time>
   <time name="orth">    0.29    0.29</time>
   <time name="total">   19.02   19.05</time>
   <energy>
    <i name="e_fr_energy">    -66.07506245 </i>
    <i name="e_wo_entrp">    -66.07506245 </i>
    <i name="e_0_energy">    -66.07506245 </i>
   </energy>
  </scstep>
  <scstep>
   <time name="diag">    3.26    3.26</time>
   <time name="diis">   13.28   13.29</time>
   <time name="orth">    0.29    0.29</time>
   <time name="total">   18.12   18.14</time>
   <energy>
    <i name="e_fr_energy">    -66.07506324 </i>
    <i name="e_wo_entrp">    -66.07506324 </i>
    <i name="e_0_energy">    -66.07506324 </i>
   </energy>
  </scstep>
  <scstep>
   <time name="diag">    3.27    3.27</time>
   <time name="diis">   14.69   14.70</time>
   <time name="orth">    0.29    0.29</time>
   <time name="total">   19.54   19.56</time>
   <energy>
    <i name="e_fr_energy">    -66.07506332 </i>
    <i name="e_wo_entrp">    -66.07506332 </i>
    <i name="e_0_energy">    -66.07506332 </i>
   </energy>
  </scstep>
  <scstep>
   <time name="diag">    3.33    3.33</time>
   <time name="diis">   12.60   12.61</time>
   <time name="orth">    0.29    0.29</time>
   <time name="total">   17.51   17.53</time>
   <energy>
    <i name="e_fr_energy">    -66.07506325 </i>
    <i name="e_wo_entrp">    -66.07506325 </i>
    <i name="e_0_energy">    -66.07506325 </i>
   </energy>
  </scstep>
  <scstep>
   <time name="diag">    3.33    3.33</time>
   <time name="diis">   10.54   10.55</time>
   <time name="orth">    0.29    0.29</time>
   <time name="total">   14.52   14.55</time>
   <energy>
    <i name="alphaZ">    290.84593586 </i>
    <i name="ewald"> -11146.63527254 </i>
    <i name="hartreedc">  -3990.18329597 </i>
    <i name="XCdc">     92.07865019 </i>
    <i name="pawpsdc">  14948.24364464 </i>
    <i name="pawaedc"> -14512.47762753 </i>
    <i name="eentropy">     -0.00000000 </i>
    <i name="bandstr">   -832.02238938 </i>
    <i name="atom">  15084.07529148 </i>
    <i name="e_fr_energy">    -66.07506325 </i>
    <i name="e_wo_entrp">    -66.07506325 </i>
    <i name="e_0_energy">    -66.07506325 </i>
   </energy>
  </scstep>
  <structure>
   <crystal>
    <varray name="basis" >
     <v>       0.00000000       6.44251660       6.44251660 </v>
     <v>       6.44251660       0.00000000       6.44251660 </v>
     <v>       6.44251660       6.44251660       0.00000000 </v>
    </varray>
    <i name="volume">    534.80644663 </i>
    <varray name="rec_basis" >
     <v>      -0.07760942       0.07760942       0.07760942 </v>
     <v>       0.07760942      -0.07760942       0.07760942 </v>
     <v>       0.07760942       0.07760942      -0.07760942 </v>
    </varray>
   </crystal>
   <varray name="positions" >
    <v>       0.24964578       0.25074702       0.25012810 </v>
    <v>       0.75039757       0.24954979       0.25014938 </v>
    <v>       0.24967273       0.74962125       0.25031626 </v>
    <v>       0.75013508       0.75002819       0.24974663 </v>
    <v>       0.25013733       0.24952568       0.75026872 </v>
    <v>       0.74940063       0.24960330       0.75048200 </v>
    <v>       0.25041499       0.74939981       0.75014344 </v>
    <v>       0.74957467       0.75076247       0.74939246 </v>
    <v>       0.99989448       0.00011324       0.00039614 </v>
    <v>       0.49957854       0.99982172       0.00074544 </v>
    <v>       0.99984274       0.50014096       0.00024631 </v>
    <v>       0.50017513       0.50022548       0.00020093 </v>
    <v>       0.00020119       0.00020595       0.50021146 </v>
    <v>       0.49987202       0.00007677       0.50025286 </v>
    <v>       0.99961098       0.49980104       0.50069085 </v>
    <v>       0.49988686       0.50005655       0.50039294 </v>
   </varray>
  </structure>
  <varray name="forces" >
   <v>      -0.00691011      -0.00406929      -0.00199882 </v>
   <v>       0.00410619      -0.00173384       0.00240692 </v>
   <v>       0.00357069       0.00236040      -0.00062552 </v>
   <v>       0.00019535       0.00415042      -0.00541093 </v>
   <v>       0.00516820      -0.00492403       0.00442882 </v>
   <v>      -0.00050984       0.00211572       0.00472050 </v>
   <v>       0.00462359      -0.00366086      -0.00079500 </v>
   <v>       0.00373656       0.01405077       0.00061606 </v>
   <v>      -0.00578035      -0.00160839      -0.00207866 </v>
   <v>      -0.00035154      -0.00108812       0.00297604 </v>
   <v>      -0.00260179      -0.00244213      -0.00005678 </v>
   <v>      -0.00119220       0.00162580      -0.00358070 </v>
   <v>      -0.00083043       0.00054964      -0.00388840 </v>
   <v>      -0.00095226      -0.00368823       0.00093673 </v>
   <v>       0.00188201      -0.00038759       0.00260574 </v>
   <v>      -0.00415408      -0.00125028      -0.00025602 </v>
  </varray>
  <varray name="stress" >
   <v>       0.10650426       0.00010308       0.00055350 </v>
   <v>       0.00010320       0.10568833      -0.00014969 </v>
   <v>       0.00055331      -0.00014963       0.10268937 </v>
  </varray>
  <energy>
   <i name="e_fr_energy">    -66.07506325 </i>
   <i name="e_wo_entrp">    -66.07506325 </i>
   <i name="e_0_energy">    -66.07506325 </i>
  </energy>
  <time name="totalsc">  137.15  137.36</time>
 </calculation>
 <calculation>
  <scstep>
   <time name="dav">   13.08   13.08</time>
   <time name="total">   14.35   14.35</time>
   <energy>
    <i name="alphaZ">    290.84593586 </i>
    <i name="ewald"> -11146.64509112 </i>
    <i name="hartreedc">  -3990.17667024 </i>
    <i name="XCdc">     92.07866820 </i>
    <i name="pawpsdc">  14948.23907721 </i>
    <i name="pawaedc"> -14512.47298436 </i>
    <i name="eentropy">     -0.00000000 </i>
    <i name="bandstr">   -832.01912848 </i>
    <i name="atom">  15084.07529148 </i>
    <i name="e_fr_energy">    -66.07490145 </i>
    <i name="e_wo_entrp">    -66.07490145 </i>
    <i name="e_0_energy">    -66.07490145 </i>
   </energy>
  </scstep>
  <scstep>
   <time name="diag">    3.26    3.26</time>
   <time name="diis">   12.08   12.09</time>
   <time name="orth">    0.29    0.29</time>
   <time name="total">   16.91   16.94</time>
   <energy>
    <i name="e_fr_energy">    -66.07507810 </i>
    <i name="e_wo_entrp">    -66.07507810 </i>
    <i name="e_0_energy">    -66.07507810 </i>
   </energy>
  </scstep>
  <scstep>
   <time name="diag">    3.26    3.26</time>
   <time name="diis">   14.33   14.33</time>
   <time name="orth">    0.29    0.29</time>
   <time name="total">   19.16   19.19</time>
   <energy>
    <i name="e_fr_energy">    -66.07515049 </i>
    <i name="e_wo_entrp">    -66.07515049 </i>
    <i name="e_0_energy">    -66.07515049 </i>
   </energy>
  </scstep>
  <scstep>
   <time name="diag">    3.26    3.26</time>
   <time name="diis">   13.28   13.29</time>
   <time name="orth">    0.29    0.29</time>
   <time name="total">   18.11   18.14</time>
   <energy>
    <i name="e_fr_energy">    -66.07515467 </i>
    <i name="e_wo_entrp">    -66.07515467 </i>
    <i name="e_0_energy">    -66.07515467 </i>
   </energy>
  </scstep>
  <scstep>
   <time name="diag">    3.26    3.26</time>
   <time name="diis">   14.63   14.64</time>
   <time name="orth">    0.29    0.29</time>
   <time name="total">   19.45   19.48</time>
   <energy>
    <i name="e_fr_energy">    -66.07515518 </i>
    <i name="e_wo_entrp">    -66.07515518 </i>
    <i name="e_0_energy">    -66.07515518 </i>
   </energy>
  </scstep>
  <scstep>
   <time name="diag">    3.26    3.26</time>
   <time name="diis">   10.99   11.00</time>
   <time name="orth">    0.29    0.29</time>
   <time name="total">   15.82   15.85</time>
   <energy>
    <i name="e_fr_energy">    -66.07515507 </i>
    <i name="e_wo_entrp">    -66.07515507 </i>
    <i name="e_0_energy">    -66.07515507 </i>
   </energy>
  </scstep>
  <scstep>
   <time name="diag">    3.30    3.30</time>
   <time name="diis">   15.55   15.56</time>
   <time name="orth">    0.29    0.29</time>
   <time name="total">   20.42   20.45</time>
   <energy>
    <i name="e_fr_energy">    -66.07515514 </i>
    <i name="e_wo_entrp">    -66.07515514 </i>
    <i name="e_0_energy">    -66.07515514 </i>
   </energy>
  </scstep>
  <scstep>
   <time name="diag">    3.26    3.26</time>
   <time name="diis">   10.95   10.96</time>
   <time name="orth">    0.29    0.29</time>
   <time name="total">   15.78   15.81</time>
   <energy>
    <i name="e_fr_energy">    -66.07515517 </i>
    <i name="e_wo_entrp">    -66.07515517 </i>
    <i name="e_0_energy">    -66.07515517 </i>
   </energy>
  </scstep>
  <scstep>
   <time name="diag">    3.26    3.26</time>
   <time name="diis">    8.06    8.07</time>
   <time name="orth">    0.29    0.29</time>
   <time name="total">   12.91   12.93</time>
   <energy>
    <i name="e_fr_energy">    -66.07515516 </i>
    <i name="e_wo_entrp">    -66.07515516 </i>
    <i name="e_0_energy">    -66.07515516 </i>
   </energy>
  </scstep>
  <scstep>
   <time name="diag">    3.26    3.27</time>
   <time name="diis">    6.65    6.66</time>
   <time name="orth">    0.29    0.29</time>
   <time name="total">   10.59   10.60</time>
   <energy>
    <i name="alphaZ">    290.84593586 </i>
    <i name="ewald"> -11146.64509112 </i>
    <i name="hartreedc">  -3990.17544240 </i>
    <i name="XCdc">     92.07863507 </i>
    <i name="pawpsdc">  14948.20231831 </i>
    <i name="pawaedc"> -14512.43588970 </i>
    <i name="eentropy">     -0.00000000 </i>
    <i name="bandstr">   -832.02091266 </i>
    <i name="atom">  15084.07529148 </i>
    <i name="e_fr_energy">    -66.07515516 </i>
    <i name="e_wo_entrp">    -66.07515516 </i>
    <i name="e_0_energy">    -66.07515516 </i>
   </energy>
  </scstep>
  <structure>
   <crystal>
    <varray name="basis" >
     <v>       0.00000000       6.44251660       6.44251660 </v>
     <v>       6.44251660       0.00000000       6.44251660 </v>
     <v>       6.44251660       6.44251660       0.00000000 </v>
    </varray>
    <i name="volume">    534.80644663 </i>
    <varray name="rec_basis" >
     <v>      -0.07760942       0.07760942       0.07760942 </v>
     <v>       0.07760942      -0.07760942       0.07760942 </v>
     <v>       0.07760942       0.07760942      -0.07760942 </v>
    </varray>
   </crystal>
   <varray name="positions" >
    <v>       0.24970678       0.25065237       0.24996483 </v>
    <v>       0.75030868       0.24965804       0.25015672 </v>
    <v>       0.24963227       0.74961962       0.25041344 </v>
    <v>       0.75009549       0.74990407       0.24991977 </v>
    <v>       0.25006703       0.24973932       0.75016637 </v>
    <v>       0.74951909       0.24961717       0.75045506 </v>
    <v>       0.25028077       0.74955259       0.75016379 </v>
    <v>       0.74973506       0.75062624       0.74966305 </v>
    <v>       0.99992451      -0.00004311       0.00031802 </v>
    <v>       0.49961753       0.99987425       0.00070101 </v>
    <v>       0.99987107       0.50011627       0.00017046 </v>
    <v>       0.50014873       0.50009717       0.00031061 </v>
    <v>       0.00019457       0.00011705       0.50027026 </v>
    <v>       0.49979526       0.00019274       0.50012475 </v>
    <v>       0.99961308       0.49989732       0.50068469 </v>
    <v>       0.49993080       0.50005812       0.50028106 </v>
   </varray>
  </structure>
  <varray name="forces" >
   <v>      -0.00297359       0.00059977      -0.00148634 </v>
   <v>       0.00177035      -0.00122643       0.00003735 </v>
   <v>       0.00174996       0.00082676       0.00155668 </v>
   <v>       0.00248494       0.00184295      -0.00220117 </v>
   <v>       0.00159980      -0.00159938       0.00097144 </v>
   <v>       0.00103157       0.00177943       0.00339536 </v>
   <v>       0.00316787      -0.00100530       0.00173756 </v>
   <v>       0.00210711       0.00522310      -0.00141719 </v>
   <v>      -0.00122604      -0.00076100       0.00103710 </v>
   <v>      -0.00105191      -0.00185509       0.00172571 </v>
   <v>      -0.00080000      -0.00218987      -0.00018429 </v>
   <v>      -0.00146122      -0.00104539      -0.00086236 </v>
   <v>      -0.00073621      -0.00132461      -0.00308182 </v>
   <v>      -0.00149734       0.00156352      -0.00008226 </v>
   <v>      -0.00094186      -0.00106665       0.00107654 </v>
   <v>      -0.00322343       0.00023818      -0.00222231 </v>
  </varray>
  <varray name="stress" >
   <v>       0.09372179       0.00000017       0.00040283 </v>
   <v>       0.00000025       0.09288370      -0.00010134 </v>
   <v>       0.00040266      -0.00010122       0.09233491 </v>
  </varray>
  <energy>
   <i name="e_fr_energy">    -66.07515516 </i>
   <i name="e_wo_entrp">    -66.07515516 </i>
   <i name="e_0_energy">    -66.07515516 </i>
  </energy>
  <time name="totalsc">  180.55  180.83</time>
 </calculation>
 <calculation>
  <scstep>
   <time name="dav">   13.08   13.09</time>
   <time name="total">   14.34   14.35</time>
   <energy>
    <i name="alphaZ">    290.84593586 </i>
    <i name="ewald"> -11146.64358745 </i>
    <i name="hartreedc">  -3990.17651584 </i>
    <i name="XCdc">     92.07863601 </i>
    <i name="pawpsdc">  14948.20283545 </i>
    <i name="pawaedc"> -14512.43641105 </i>
    <i name="eentropy">     -0.00000000 </i>
    <i name="bandstr">   -832.02018281 </i>
    <i name="atom">  15084.07529148 </i>
    <i name="e_fr_energy">    -66.07399835 </i>
    <i name="e_wo_entrp">    -66.07399835 </i>
    <i name="e_0_energy">    -66.07399835 </i>
   </energy>
  </scstep>
  <scstep>
   <time name="diag">    3.26    3.26</time>
   <time name="diis">   12.07   12.08</time>
   <time name="orth">    0.29    0.29</time>
   <time name="total">   16.90   16.93</time>
   <energy>
    <i name="e_fr_energy">    -66.07468391 </i>
    <i name="e_wo_entrp">    -66.07468391 </i>
    <i name="e_0_energy">    -66.07468391 </i>
   </energy>
  </scstep>
  <scstep>
   <time name="diag">    3.27    3.27</time>
   <time name="diis">   14.24   14.25</time>
   <time name="orth">    0.29    0.29</time>
   <time name="total">   19.08   19.11</time>
   <energy>
    <i name="e_fr_energy">    -66.07504129 </i>
    <i name="e_wo_entrp">    -66.07504129 </i>
    <i name="e_0_energy">    -66.07504129 </i>
   </energy>
  </scstep>
  <scstep>
   <time name="diag">    3.32    3.32</time>
   <time name="diis">   13.26   13.27</time>
   <time name="orth">    0.29    0.29</time>
   <time name="total">   18.16   18.18</time>
   <energy>
    <i name="e_fr_energy">    -66.07506642 </i>
    <i name="e_wo_entrp">    -66.07506642 </i>
    <i name="e_0_energy">    -66.07506642 </i>
   </energy>
  </scstep>
  <scstep>
   <time name="diag">    3.32    3.32</time>
   <time name="diis">   14.59   14.60</time>
   <time name="orth">    0.29    0.29</time>
   <time name="total">   19.49   19.52</time>
   <energy>
    <i name="e_fr_energy">    -66.07507375 </i>
    <i name="e_wo_entrp">    -66.07507375 </i>
    <i name="e_0_energy">    -66.07507375 </i>
   </energy>
  </scstep>
  <scstep>
   <time name="diag">    3.32    3.32</time>
   <time name="diis">   12.68   12.69</time>
   <time name="orth">    0.29    0.29</time>
   <time name="total">   17.58   17.61</time>
   <energy>
    <i name="e_fr_energy">    -66.07507406 </i>
    <i name="e_wo_entrp">    -66.07507406 </i>
    <i name="e_0_energy">    -66.07507406 </i>
   </energy>
  </scstep>
  <scstep>
   <time name="diag">    3.33    3.33</time>
   <time name="diis">   14.13   14.14</time>
   <time name="orth">    0.29    0.29</time>
   <time name="total">   19.14   19.17</time>
   <energy>
    <i name="e_fr_energy">    -66.07507450 </i>
    <i name="e_wo_entrp">    -66.07507450 </i>
    <i name="e_0_energy">    -66.07507450 </i>
   </energy>
  </scstep>
  <scstep>
   <time name="diag">    3.26    3.26</time>
   <time name="diis">   13.23   13.24</time>
   <time name="orth">    0.32    0.32</time>
   <time name="total">   18.10   18.13</time>
   <energy>
    <i name="e_fr_energy">    -66.07507456 </i>
    <i name="e_wo_entrp">    -66.07507456 </i>
    <i name="e_0_energy">    -66.07507456 </i>
   </energy>
  </scstep>
  <scstep>
   <time name="diag">    3.27    3.27</time>
   <time name="diis">   11.77   11.78</time>
   <time name="orth">    0.29    0.29</time>
   <time name="total">   16.71   16.74</time>
   <energy>
    <i name="e_fr_energy">    -66.07507460 </i>
    <i name="e_wo_entrp">    -66.07507460 </i>
    <i name="e_0_energy">    -66.07507460 </i>
   </energy>
  </scstep>
  <scstep>
   <time name="diag">    3.27    3.27</time>
   <time name="diis">    6.78    6.79</time>
   <time name="orth">    0.29    0.29</time>
   <time name="total">   10.72   10.73</time>
   <energy>
    <i name="alphaZ">    290.84593586 </i>
    <i name="ewald"> -11146.64358745 </i>
    <i name="hartreedc">  -3990.17590292 </i>
    <i name="XCdc">     92.07863815 </i>
    <i name="pawpsdc">  14948.19086604 </i>
    <i name="pawaedc"> -14512.42437734 </i>
    <i name="eentropy">     -0.00000000 </i>
    <i name="bandstr">   -832.02193841 </i>
    <i name="atom">  15084.07529148 </i>
    <i name="e_fr_energy">    -66.07507459 </i>
    <i name="e_wo_entrp">    -66.07507459 </i>
    <i name="e_0_energy">    -66.07507459 </i>
   </energy>
  </scstep>
  <structure>
   <crystal>
    <varray name="basis" >
     <v>       0.00000000       6.44251660       6.44251660 </v>
     <v>       6.44251660       0.00000000       6.44251660 </v>
     <v>       6.44251660       6.44251660       0.00000000 </v>
    </varray>
    <i name="volume">    534.80644663 </i>
    <varray name="rec_basis" >
     <v>      -0.07760942       0.07760942       0.07760942 </v>
     <v>       0.07760942      -0.07760942       0.07760942 </v>
     <v>       0.07760942       0.07760942      -0.07760942 </v>
    </varray>
   </crystal>
   <varray name="positions" >
    <v>       0.24982878       0.25046307       0.24963830 </v>
    <v>       0.75013089       0.24987454       0.25017139 </v>
    <v>       0.24955135       0.74961638       0.25060782 </v>
    <v>       0.75001631       0.74965583       0.25026605 </v>
    <v>       0.24992642       0.25016660       0.74996168 </v>
    <v>       0.74975603       0.24964491       0.75040118 </v>
    <v>       0.25001234       0.74985815       0.75020451 </v>
    <v>       0.75005584       0.75035377       0.75020423 </v>
    <v>       0.99998457      -0.00035580       0.00016179 </v>
    <v>       0.49969550       0.99997931       0.00061214 </v>
    <v>       0.99992773       0.50006688       0.00001877 </v>
    <v>       0.50009595       0.49984055       0.00052997 </v>
    <v>       0.00018134      -0.00006074       0.50038785 </v>
    <v>       0.49964174       0.00042469       0.49986854 </v>
    <v>       0.99961726       0.50008986       0.50067236 </v>
[...]
   </crystal>
   <varray name="positions" >
    <v>       0.24988538       0.25001358       0.25022271 </v>
    <v>       0.74995765       0.24997721       0.25018821 </v>
    <v>       0.24989511       0.74995092       0.25026814 </v>
    <v>       0.74987398       0.74996301       0.25023640 </v>
    <v>       0.24987566       0.24996356       0.75023210 </v>
    <v>       0.74989648       0.24995039       0.75026882 </v>
    <v>       0.24995940       0.74997982       0.75018749 </v>
    <v>       0.74988374       0.75001458       0.75022703 </v>
    <v>       0.99991674      -0.00005223       0.00025043 </v>
    <v>       0.49986971       0.99999616       0.00025783 </v>
    <v>       0.99991380       0.50000300       0.00022044 </v>
    <v>       0.49990179       0.49998913       0.00024543 </v>
    <v>      -0.00009173      -0.00001114       0.50024331 </v>
    <v>       0.49991349      -0.00000121       0.50021725 </v>
    <v>       0.99987390       0.49999452       0.50024904 </v>
    <v>       0.49991563       0.49994794       0.50024927 </v>
   </varray>
  </structure>
  <varray name="forces" >
   <v>       0.00006928       0.00012332      -0.00003486 </v>
   <v>       0.00018585       0.00000999      -0.00014059 </v>
   <v>       0.00004305      -0.00000320       0.00010351 </v>
   <v>       0.00003924       0.00007033       0.00020258 </v>
   <v>       0.00014085       0.00010060       0.00017696 </v>
   <v>       0.00002739      -0.00005027       0.00010357 </v>
   <v>       0.00014156      -0.00001997      -0.00025264 </v>
   <v>      -0.00003499       0.00011725      -0.00001106 </v>
   <v>       0.00001030      -0.00018287      -0.00002017 </v>
   <v>      -0.00032222      -0.00001969       0.00000619 </v>
   <v>      -0.00018467      -0.00015017      -0.00010233 </v>
   <v>      -0.00013995       0.00006523       0.00011767 </v>
   <v>      -0.00005813      -0.00007393      -0.00009649 </v>
   <v>       0.00004635      -0.00001364       0.00004126 </v>
   <v>       0.00001186       0.00013129      -0.00008050 </v>
   <v>       0.00002423      -0.00010429      -0.00001311 </v>
  </varray>
  <varray name="stress" >
   <v>       0.09505386       0.00001743       0.00001471 </v>
   <v>       0.00001727       0.09505061       0.00001778 </v>
   <v>       0.00001457       0.00001778       0.09505653 </v>
  </varray>
  <energy>
   <i name="e_fr_energy">    -66.07522837 </i>
   <i name="e_wo_entrp">    -66.07522837 </i>
   <i name="e_0_energy">    -66.07522837 </i>
  </energy>
  <time name="totalsc">   59.07   59.17</time>
 </calculation>
 <calculation>
  <scstep>
   <time name="dav">    8.19    8.19</time>
   <time name="total">    9.50    9.51</time>
   <energy>
    <i name="alphaZ">    290.84593586 </i>
    <i name="ewald"> -11146.65334112 </i>
    <i name="hartreedc">  -3990.16668730 </i>
    <i name="XCdc">     92.07859913 </i>
    <i name="pawpsdc">  14948.17834648 </i>
    <i name="pawaedc"> -14512.41164364 </i>
    <i name="eentropy">     -0.00000000 </i>
    <i name="bandstr">   -832.02172925 </i>
    <i name="atom">  15084.07529148 </i>
    <i name="e_fr_energy">    -66.07522837 </i>
    <i name="e_wo_entrp">    -66.07522837 </i>
    <i name="e_0_energy">    -66.07522837 </i>
   </energy>
  </scstep>
  <scstep>
   <time name="diag">    3.25    3.25</time>
   <time name="diis">    3.53    3.53</time>
   <time name="orth">    0.29    0.29</time>
   <time name="total">    8.36    8.37</time>
   <energy>
    <i name="e_fr_energy">    -66.07522837 </i>
    <i name="e_wo_entrp">    -66.07522837 </i>
    <i name="e_0_energy">    -66.07522837 </i>
   </energy>
  </scstep>
  <scstep>
   <time name="diag">    3.25    3.26</time>
   <time name="diis">    3.52    3.53</time>
   <time name="orth">    0.29    0.29</time>
   <time name="total">    8.35    8.38</time>
   <energy>
    <i name="e_fr_energy">    -66.07522837 </i>
    <i name="e_wo_entrp">    -66.07522837 </i>
    <i name="e_0_energy">    -66.07522837 </i>
   </energy>
  </scstep>
  <scstep>
   <time name="diag">    3.31    3.31</time>
   <time name="diis">    3.53    3.53</time>
   <time name="orth">    0.29    0.29</time>
   <time name="total">    8.41    8.43</time>
   <energy>
    <i name="e_fr_energy">    -66.07522837 </i>
    <i name="e_wo_entrp">    -66.07522837 </i>
    <i name="e_0_energy">    -66.07522837 </i>
   </energy>
  </scstep>
  <scstep>
   <time name="diag">    3.27    3.27</time>
   <time name="diis">    3.53    3.53</time>
   <time name="orth">    0.29    0.29</time>
   <time name="total">    7.46    7.48</time>
   <energy>
    <i name="alphaZ">    290.84593586 </i>
    <i name="ewald"> -11146.65334112 </i>
    <i name="hartreedc">  -3990.16669159 </i>
    <i name="XCdc">     92.07859929 </i>
    <i name="pawpsdc">  14948.17834660 </i>
    <i name="pawaedc"> -14512.41164366 </i>
    <i name="eentropy">     -0.00000000 </i>
    <i name="bandstr">   -832.02172522 </i>
    <i name="atom">  15084.07529148 </i>
    <i name="e_fr_energy">    -66.07522837 </i>
    <i name="e_wo_entrp">    -66.07522837 </i>
    <i name="e_0_energy">    -66.07522837 </i>
   </energy>
  </scstep>
  <structure>
   <crystal>
    <varray name="basis" >
     <v>       0.00000000       6.44251660       6.44251660 </v>
     <v>       6.44251660       0.00000000       6.44251660 </v>
     <v>       6.44251660       6.44251660       0.00000000 </v>
    </varray>
    <i name="volume">    534.80644663 </i>
    <varray name="rec_basis" >
     <v>      -0.07760942       0.07760942       0.07760942 </v>
     <v>       0.07760942      -0.07760942       0.07760942 </v>
     <v>       0.07760942       0.07760942      -0.07760942 </v>
    </varray>
   </crystal>
   <varray name="positions" >
    <v>       0.24988538       0.25001358       0.25022271 </v>
    <v>       0.74995765       0.24997721       0.25018821 </v>
    <v>       0.24989511       0.74995092       0.25026814 </v>
    <v>       0.74987398       0.74996301       0.25023640 </v>
    <v>       0.24987566       0.24996356       0.75023210 </v>
    <v>       0.74989648       0.24995039       0.75026882 </v>
    <v>       0.24995940       0.74997982       0.75018749 </v>
    <v>       0.74988374       0.75001458       0.75022703 </v>
    <v>       0.99991674      -0.00005223       0.00025043 </v>
    <v>       0.49986971       0.99999616       0.00025783 </v>
    <v>       0.99991380       0.50000300       0.00022044 </v>
    <v>       0.49990179       0.49998913       0.00024543 </v>
    <v>      -0.00009173      -0.00001114       0.50024331 </v>
    <v>       0.49991349      -0.00000121       0.50021725 </v>
    <v>       0.99987390       0.49999452       0.50024904 </v>
    <v>       0.49991563       0.49994794       0.50024927 </v>
   </varray>
  </structure>
  <varray name="forces" >
   <v>       0.00006760       0.00012297      -0.00003612 </v>
   <v>       0.00018661       0.00000964      -0.00014162 </v>
   <v>       0.00004256      -0.00000449       0.00010477 </v>
   <v>       0.00003889       0.00007129       0.00020295 </v>
   <v>       0.00014120       0.00010095       0.00017802 </v>
   <v>       0.00002656      -0.00005160       0.00010517 </v>
   <v>       0.00014229      -0.00002059      -0.00025426 </v>
   <v>      -0.00003612       0.00011829      -0.00001202 </v>
   <v>       0.00001042      -0.00018215      -0.00001989 </v>
   <v>      -0.00032204      -0.00001964       0.00000575 </v>
   <v>      -0.00018451      -0.00015003      -0.00010207 </v>
   <v>      -0.00013911       0.00006514       0.00011784 </v>
   <v>      -0.00005835      -0.00007351      -0.00009653 </v>
   <v>       0.00004684      -0.00001329       0.00004101 </v>
   <v>       0.00001227       0.00013166      -0.00007986 </v>
   <v>       0.00002487      -0.00010464      -0.00001313 </v>
  </varray>
  <varray name="stress" >
   <v>       0.09507567       0.00001720       0.00001484 </v>
   <v>       0.00001744       0.09507180       0.00001765 </v>
   <v>       0.00001500       0.00001788       0.09507723 </v>
  </varray>
  <energy>
   <i name="e_fr_energy">    -66.07522837 </i>
   <i name="e_wo_entrp">    -66.07522837 </i>
   <i name="e_0_energy">    -66.07522837 </i>
  </energy>
  <time name="totalsc">   59.14   59.25</time>
 </calculation>
 <calculation>
  <scstep>
   <time name="dav">    8.25    8.25</time>
   <time name="total">    9.52    9.52</time>
   <energy>
    <i name="alphaZ">    290.84593586 </i>
    <i name="ewald"> -11146.65334112 </i>
    <i name="hartreedc">  -3990.16669161 </i>
    <i name="XCdc">     92.07859929 </i>
    <i name="pawpsdc">  14948.17834660 </i>
    <i name="pawaedc"> -14512.41164366 </i>
    <i name="eentropy">     -0.00000000 </i>
    <i name="bandstr">   -832.02172520 </i>
    <i name="atom">  15084.07529148 </i>
    <i name="e_fr_energy">    -66.07522837 </i>
    <i name="e_wo_entrp">    -66.07522837 </i>
    <i name="e_0_energy">    -66.07522837 </i>
   </energy>
  </scstep>
  <scstep>
   <time name="diag">    3.25    3.25</time>
   <time name="diis">    3.51    3.52</time>
   <time name="orth">    0.29    0.29</time>
   <time name="total">    8.35    8.36</time>
   <energy>
    <i name="e_fr_energy">    -66.07522837 </i>
    <i name="e_wo_entrp">    -66.07522837 </i>
    <i name="e_0_energy">    -66.07522837 </i>
   </energy>
  </scstep>
  <scstep>
   <time name="diag">    3.31    3.32</time>
   <time name="diis">    3.53    3.53</time>
   <time name="orth">    0.29    0.29</time>
   <time name="total">    8.42    8.44</time>
   <energy>
    <i name="e_fr_energy">    -66.07522837 </i>
    <i name="e_wo_entrp">    -66.07522837 </i>
    <i name="e_0_energy">    -66.07522837 </i>
   </energy>
  </scstep>
  <scstep>
   <time name="diag">    3.26    3.26</time>
   <time name="diis">    3.54    3.54</time>
   <time name="orth">    0.29    0.29</time>
   <time name="total">    8.38    8.39</time>
   <energy>
    <i name="e_fr_energy">    -66.07522837 </i>
    <i name="e_wo_entrp">    -66.07522837 </i>
    <i name="e_0_energy">    -66.07522837 </i>
   </energy>
  </scstep>
  <scstep>
   <time name="diag">    3.32    3.33</time>
   <time name="diis">    3.55    3.55</time>
   <time name="orth">    0.29    0.29</time>
   <time name="total">    7.53    7.55</time>
   <energy>
    <i name="alphaZ">    290.84593586 </i>
    <i name="ewald"> -11146.65334112 </i>
    <i name="hartreedc">  -3990.16668759 </i>
    <i name="XCdc">     92.07859914 </i>
    <i name="pawpsdc">  14948.17834693 </i>
    <i name="pawaedc"> -14512.41164408 </i>
    <i name="eentropy">     -0.00000000 </i>
    <i name="bandstr">   -832.02172898 </i>
    <i name="atom">  15084.07529148 </i>
    <i name="e_fr_energy">    -66.07522837 </i>
    <i name="e_wo_entrp">    -66.07522837 </i>
    <i name="e_0_energy">    -66.07522837 </i>
   </energy>
  </scstep>
  <structure>
   <crystal>
    <varray name="basis" >
     <v>       0.00000000       6.44251660       6.44251660 </v>
     <v>       6.44251660       0.00000000       6.44251660 </v>
     <v>       6.44251660       6.44251660       0.00000000 </v>
    </varray>
    <i name="volume">    534.80644663 </i>
    <varray name="rec_basis" >
     <v>      -0.07760942       0.07760942       0.07760942 </v>
     <v>       0.07760942      -0.07760942       0.07760942 </v>
     <v>       0.07760942       0.07760942      -0.07760942 </v>
    </varray>
   </crystal>
   <varray name="positions" >
    <v>       0.24988538       0.25001358       0.25022271 </v>
    <v>       0.74995765       0.24997721       0.25018821 </v>
    <v>       0.24989511       0.74995092       0.25026814 </v>
    <v>       0.74987398       0.74996301       0.25023640 </v>
    <v>       0.24987566       0.24996356       0.75023210 </v>
    <v>       0.74989648       0.24995039       0.75026882 </v>
    <v>       0.24995940       0.74997982       0.75018749 </v>
    <v>       0.74988374       0.75001458       0.75022703 </v>
    <v>       0.99991674      -0.00005223       0.00025043 </v>
    <v>       0.49986971       0.99999616       0.00025783 </v>
    <v>       0.99991380       0.50000300       0.00022044 </v>
    <v>       0.49990179       0.49998913       0.00024543 </v>
    <v>      -0.00009173      -0.00001114       0.50024331 </v>
    <v>       0.49991349      -0.00000121       0.50021725 </v>
    <v>       0.99987390       0.49999452       0.50024904 </v>
    <v>       0.49991563       0.49994794       0.50024927 </v>
   </varray>
  </structure>
  <varray name="forces" >
   <v>       0.00006624       0.00012271      -0.00003712 </v>
   <v>       0.00018727       0.00000934      -0.00014254 </v>
   <v>       0.00004213      -0.00000554       0.00010580 </v>
   <v>       0.00003857       0.00007208       0.00020330 </v>
   <v>       0.00014147       0.00010121       0.00017893 </v>
   <v>       0.00002588      -0.00005266       0.00010645 </v>
   <v>       0.00014292      -0.00002111      -0.00025563 </v>
   <v>      -0.00003703       0.00011915      -0.00001279 </v>
   <v>       0.00001092      -0.00018244      -0.00001996 </v>
   <v>      -0.00032171      -0.00001935       0.00000627 </v>
   <v>      -0.00018410      -0.00014976      -0.00010225 </v>
   <v>      -0.00013928       0.00006550       0.00011780 </v>
   <v>      -0.00005764      -0.00007359      -0.00009639 </v>
   <v>       0.00004700      -0.00001320       0.00004128 </v>
   <v>       0.00001244       0.00013169      -0.00008023 </v>
   <v>       0.00002493      -0.00010404      -0.00001292 </v>
  </varray>
  <varray name="stress" >
   <v>       0.09505557       0.00001736       0.00001485 </v>
   <v>       0.00001738       0.09505205       0.00001758 </v>
   <v>       0.00001504       0.00001761       0.09505748 </v>
  </varray>
  <energy>
   <i name="e_fr_energy">    -66.07522837 </i>
   <i name="e_wo_entrp">    -66.07522837 </i>
   <i name="e_0_energy">    -66.07522837 </i>
  </energy>
  <time name="totalsc">   59.20   59.30</time>
 </calculation>
 <calculation>
  <scstep>
   <time name="dav">   13.12   13.13</time>
   <time name="total">   14.49   14.49</time>
   <energy>
    <i name="alphaZ">    290.84593586 </i>
    <i name="ewald"> -11146.65331681 </i>
    <i name="hartreedc">  -3990.16671238 </i>
    <i name="XCdc">     92.07859869 </i>
    <i name="pawpsdc">  14948.17834693 </i>
    <i name="pawaedc"> -14512.41164408 </i>
    <i name="eentropy">     -0.00000000 </i>
    <i name="bandstr">   -832.02172250 </i>
    <i name="atom">  15084.07529148 </i>
    <i name="e_fr_energy">    -66.07522282 </i>
    <i name="e_wo_entrp">    -66.07522282 </i>
    <i name="e_0_energy">    -66.07522282 </i>
   </energy>
  </scstep>
  <scstep>
   <time name="diag">    3.26    3.26</time>
   <time name="diis">   12.12   12.13</time>
   <time name="orth">    0.29    0.29</time>
   <time name="total">   17.00   17.02</time>
   <energy>
    <i name="e_fr_energy">    -66.07522666 </i>
    <i name="e_wo_entrp">    -66.07522666 </i>
    <i name="e_0_energy">    -66.07522666 </i>
   </energy>
  </scstep>
  <scstep>
   <time name="diag">    3.25    3.26</time>
   <time name="diis">   14.04   14.05</time>
   <time name="orth">    0.29    0.29</time>
   <time name="total">   18.87   18.90</time>
   <energy>
    <i name="e_fr_energy">    -66.07522780 </i>
    <i name="e_wo_entrp">    -66.07522780 </i>
    <i name="e_0_energy">    -66.07522780 </i>
   </energy>
  </scstep>
  <scstep>
   <time name="diag">    3.25    3.26</time>
   <time name="diis">   13.08   13.09</time>
   <time name="orth">    0.29    0.29</time>
   <time name="total">   17.91   17.94</time>
   <energy>
    <i name="e_fr_energy">    -66.07522787 </i>
    <i name="e_wo_entrp">    -66.07522787 </i>
    <i name="e_0_energy">    -66.07522787 </i>
   </energy>
  </scstep>
  <scstep>
   <time name="diag">    3.25    3.25</time>
   <time name="diis">   11.71   11.71</time>
   <time name="orth">    0.34    0.34</time>
   <time name="total">   16.61   16.63</time>
   <energy>
    <i name="e_fr_energy">    -66.07522788 </i>
    <i name="e_wo_entrp">    -66.07522788 </i>
    <i name="e_0_energy">    -66.07522788 </i>
   </energy>
  </scstep>
  <scstep>
   <time name="diag">    3.26    3.27</time>
   <time name="diis">    8.11    8.12</time>
   <time name="orth">    0.29    0.29</time>
   <time name="total">   12.05   12.06</time>
   <energy>
    <i name="alphaZ">    290.84593586 </i>
    <i name="ewald"> -11146.65331681 </i>
    <i name="hartreedc">  -3990.16641310 </i>
    <i name="XCdc">     92.07858656 </i>
    <i name="pawpsdc">  14948.17903693 </i>
    <i name="pawaedc"> -14512.41235944 </i>
    <i name="eentropy">     -0.00000000 </i>
    <i name="bandstr">   -832.02198935 </i>
    <i name="atom">  15084.07529148 </i>
    <i name="e_fr_energy">    -66.07522787 </i>
    <i name="e_wo_entrp">    -66.07522787 </i>
    <i name="e_0_energy">    -66.07522787 </i>
   </energy>
  </scstep>
  <structure>
   <crystal>
    <varray name="basis" >
     <v>       0.00000000       6.44251660       6.44251660 </v>
     <v>       6.44251660       0.00000000       6.44251660 </v>
     <v>       6.44251660       6.44251660       0.00000000 </v>
    </varray>
    <i name="volume">    534.80644663 </i>
    <varray name="rec_basis" >
     <v>      -0.07760942       0.07760942       0.07760942 </v>
     <v>       0.07760942      -0.07760942       0.07760942 </v>
     <v>       0.07760942       0.07760942      -0.07760942 </v>
    </varray>
   </crystal>
   <varray name="positions" >
    <v>       0.24988370       0.25004105       0.25023459 </v>
    <v>       0.74997821       0.24997856       0.25017779 </v>
    <v>       0.24989025       0.74993369       0.25030027 </v>
    <v>       0.74985749       0.74997349       0.25023848 </v>
    <v>       0.24986506       0.24995535       0.75023982 </v>
    <v>       0.74988534       0.24993185       0.75030949 </v>
    <v>       0.24998737       0.74998431       0.75017469 </v>
    <v>       0.74987112       0.75004723       0.75022282 </v>
    <v>       0.99991996      -0.00007117       0.00024392 </v>
    <v>       0.49985658       0.99999572       0.00026401 </v>
    <v>       0.99991661       0.50002093       0.00019061 </v>
    <v>       0.49990854       0.49998391       0.00024351 </v>
    <v>      -0.00008296      -0.00001794       0.50024200 </v>
    <v>       0.49992160       0.00000813       0.50018811 </v>
    <v>       0.99986462       0.49999139       0.50024919 </v>
    <v>       0.49991722       0.49992273       0.50024459 </v>
   </varray>
  </structure>
  <varray name="forces" >
   <v>      -0.00030321      -0.00044369      -0.00041353 </v>
   <v>       0.00028290       0.00010027       0.00001285 </v>
   <v>       0.00002625      -0.00022758       0.00024252 </v>
   <v>      -0.00037835       0.00035276       0.00003702 </v>
   <v>       0.00041276       0.00006966       0.00041152 </v>
   <v>      -0.00028981      -0.00044960       0.00047031 </v>
   <v>       0.00009539      -0.00018440      -0.00073332 </v>
   <v>      -0.00024105       0.00053965      -0.00012066 </v>
   <v>       0.00013181       0.00001116       0.00003725 </v>
   <v>      -0.00035459      -0.00010546      -0.00003792 </v>
   <v>      -0.00017528       0.00018014      -0.00026690 </v>
   <v>      -0.00005349       0.00001138       0.00025755 </v>
   <v>       0.00005851      -0.00020494       0.00002523 </v>
   <v>       0.00028458       0.00015181      -0.00002682 </v>
   <v>       0.00023367       0.00011174      -0.00016031 </v>
   <v>       0.00026990       0.00008710       0.00026521 </v>
  </varray>
  <varray name="stress" >
   <v>       0.09609271       0.00003215       0.00001758 </v>
   <v>       0.00003174       0.09609079       0.00000633 </v>
   <v>       0.00001759       0.00000635       0.09615041 </v>
  </varray>
  <energy>
   <i name="e_fr_energy">    -66.07522787 </i>
   <i name="e_wo_entrp">    -66.07522787 </i>
   <i name="e_0_energy">    -66.07522787 </i>
  </energy>
