unknown system                          
           1
     0.000000    6.541794    6.541794
     6.541794    0.000000    6.541794
     6.541794    6.541794    0.000000
   Pb   Te
     8     8
Direct configuration=     1
   0.24991423  0.24997071  0.25030767
   0.74991753  0.24997299  0.25030144
   0.24991592  0.74996894  0.25030956
   0.74990985  0.74997261  0.25030605
   0.24990973  0.24997357  0.75030531
   0.74991615  0.24996924  0.75030926
   0.24991703  0.74997283  0.75030165
   0.74991456  0.74997026  0.75030880
   0.99989012  0.99998700  0.00035256
   0.49989016  0.99998844  0.00035132
   0.99989148  0.49998905  0.00035188
   0.49989053  0.49998883  0.00035099
   0.99988954  0.99998984  0.50035144
   0.49989274  0.99998906  0.50035086
   0.99988929  0.49998874  0.50035250
   0.49989188  0.49998714  0.50035260
Direct configuration=     2
   0.24991406  0.24997091  0.25030770
   0.74991739  0.24997302  0.25030168
   0.24991572  0.74996911  0.25030962
   0.74990981  0.74997274  0.25030619
   0.24990969  0.24997371  0.75030545
   0.74991595  0.24996941  0.75030932
   0.24991689  0.74997287  0.75030189
   0.74991438  0.74997046  0.75030883
   0.99989026  0.99998690  0.00035241
   0.49989032  0.99998829  0.00035121
   0.99989157  0.49998891  0.00035177
   0.49989068  0.49998868  0.00035089
   0.99988969  0.99998968  0.50035134
   0.49989284  0.99998892  0.50035074
   0.99988944  0.49998859  0.50035240
   0.49989202  0.49998705  0.50035245
Direct configuration=     3
   0.24991398  0.24997100  0.25030772
   0.74991733  0.24997304  0.25030179
   0.24991563  0.74996919  0.25030965
   0.74990980  0.74997281  0.25030625
   0.24990968  0.24997377  0.75030551
   0.74991586  0.24996949  0.75030935
   0.24991683  0.74997289  0.75030200
   0.74991430  0.74997055  0.75030885
   0.99989032  0.99998685  0.00035234
   0.49989039  0.99998822  0.00035117
   0.99989162  0.49998884  0.00035172
   0.49989075  0.49998860  0.00035085
   0.99988976  0.99998961  0.50035130
   0.49989289  0.99998886  0.50035069
   0.99988951  0.49998852  0.50035235
   0.49989208  0.49998700  0.50035238
Direct configuration=     4
   0.24991382  0.24997118  0.25030775
   0.74991720  0.24997307  0.25030200
   0.24991545  0.74996935  0.25030971
   0.74990976  0.74997293  0.25030638
   0.24990964  0.24997389  0.75030564
   0.74991567  0.24996965  0.75030940
   0.24991671  0.74997292  0.75030221
   0.74991415  0.74997073  0.75030888
   0.99989044  0.99998677  0.00035219
   0.49989054  0.99998808  0.00035107
   0.99989171  0.49998872  0.00035161
   0.49989089  0.49998846  0.00035076
   0.99988990  0.99998946  0.50035121
   0.49989297  0.99998873  0.50035059
   0.99988966  0.49998838  0.50035226
   0.49989221  0.49998691  0.50035224
Direct configuration=     5
   0.24991351  0.24997154  0.25030781
   0.74991695  0.24997314  0.25030244
   0.24991509  0.74996966  0.25030981
   0.74990969  0.74997318  0.25030663
   0.24990958  0.24997414  0.75030589
   0.74991531  0.24996996  0.75030951
   0.24991646  0.74997299  0.75030265
   0.74991383  0.74997110  0.75030894
   0.99989070  0.99998659  0.00035191
   0.49989082  0.99998780  0.00035089
   0.99989188  0.49998847  0.00035141
   0.49989117  0.49998818  0.00035058
   0.99989018  0.99998918  0.50035103
   0.49989315  0.99998848  0.50035038
   0.99988994  0.49998810  0.50035207
   0.49989246  0.49998674  0.50035195
Direct configuration=     6
   0.24991288  0.24997227  0.25030793
   0.74991646  0.24997328  0.25030330
   0.24991436  0.74997029  0.25031003
   0.74990956  0.74997367  0.25030713
   0.24990944  0.24997464  0.75030640
   0.74991459  0.24997059  0.75030973
   0.24991596  0.74997312  0.75030352
   0.74991321  0.74997182  0.75030905
   0.99989120  0.99998624  0.00035135
   0.49989139  0.99998725  0.00035051
   0.99989224  0.49998797  0.00035099
   0.49989172  0.49998760  0.00035023
   0.99989073  0.99998861  0.50035067
   0.49989350  0.99998798  0.50034996
   0.99989052  0.49998755  0.50035170
   0.49989296  0.49998638  0.50035139
Direct configuration=     7
   0.24991319  0.24997192  0.25030787
   0.74991670  0.24997321  0.25030288
   0.24991471  0.74996998  0.25030993
   0.74990962  0.74997343  0.25030689
   0.24990951  0.24997440  0.75030615
   0.74991494  0.24997029  0.75030962
   0.24991620  0.74997306  0.75030309
   0.74991351  0.74997147  0.75030900
   0.99989095  0.99998641  0.00035162
   0.49989112  0.99998752  0.00035070
   0.99989207  0.49998821  0.00035119
   0.49989145  0.49998788  0.00035040
   0.99989046  0.99998888  0.50035085
   0.49989333  0.99998822  0.50035016
   0.99989024  0.49998782  0.50035188
   0.49989272  0.49998655  0.50035166
Direct configuration=     8
   0.24991292  0.24997222  0.25030792
   0.74991649  0.24997327  0.25030325
   0.24991441  0.74997025  0.25031002
   0.74990957  0.74997364  0.25030710
   0.24990945  0.24997460  0.75030637
   0.74991463  0.24997055  0.75030971
   0.24991599  0.74997311  0.75030346
   0.74991325  0.74997178  0.75030905
   0.99989117  0.99998626  0.00035138
   0.49989136  0.99998728  0.00035054
   0.99989221  0.49998800  0.00035102
   0.49989169  0.49998764  0.00035025
   0.99989070  0.99998864  0.50035070
   0.49989348  0.99998801  0.50034999
   0.99989048  0.49998758  0.50035172
   0.49989293  0.49998641  0.50035142
Direct configuration=     9
   0.24991291  0.24997224  0.25030792
   0.74991648  0.24997327  0.25030327
   0.24991439  0.74997026  0.25031002
   0.74990957  0.74997365  0.25030711
   0.24990945  0.24997462  0.75030638
   0.74991462  0.24997056  0.75030972
   0.24991598  0.74997312  0.75030348
   0.74991323  0.74997179  0.75030905
   0.99989118  0.99998625  0.00035137
   0.49989137  0.99998727  0.00035053
   0.99989222  0.49998799  0.00035101
   0.49989170  0.49998763  0.00035024
   0.99989071  0.99998863  0.50035069
   0.49989349  0.99998800  0.50034998
   0.99989049  0.49998757  0.50035171
   0.49989294  0.49998640  0.50035141
Direct configuration=    10
   0.24991289  0.24997225  0.25030793
   0.74991647  0.24997327  0.25030329
   0.24991438  0.74997028  0.25031003
   0.74990956  0.74997366  0.25030712
   0.24990944  0.24997463  0.75030639
   0.74991460  0.24997058  0.75030972
   0.24991597  0.74997312  0.75030350
   0.74991322  0.74997181  0.75030905
   0.99989119  0.99998624  0.00035136
   0.49989138  0.99998726  0.00035052
   0.99989223  0.49998797  0.00035100
   0.49989171  0.49998761  0.00035023
   0.99989072  0.99998862  0.50035068
   0.49989350  0.99998799  0.50034997
   0.99989050  0.49998756  0.50035170
   0.49989295  0.49998639  0.50035140
Direct configuration=    11
   0.24991289  0.24997226  0.25030793
   0.74991646  0.24997328  0.25030330
   0.24991437  0.74997028  0.25031003
   0.74990956  0.74997367  0.25030713
   0.24990944  0.24997463  0.75030640
   0.74991459  0.24997059  0.75030973
   0.24991597  0.74997312  0.75030351
   0.74991321  0.74997182  0.75030905
   0.99989119  0.99998624  0.00035135
   0.49989139  0.99998725  0.00035052
   0.99989223  0.49998797  0.00035099
   0.49989172  0.49998761  0.00035023
   0.99989073  0.99998861  0.50035068
   0.49989350  0.99998798  0.50034997
   0.99989051  0.49998755  0.50035170
   0.49989296  0.49998639  0.50035139
Direct configuration=    12
   0.24991288  0.24997227  0.25030793
   0.74991646  0.24997328  0.25030330
   0.24991436  0.74997029  0.25031003
   0.74990956  0.74997367  0.25030713
   0.24990944  0.24997464  0.75030640
   0.74991459  0.24997059  0.75030973
   0.24991596  0.74997312  0.75030351
   0.74991321  0.74997182  0.75030905
   0.99989120  0.99998624  0.00035135
   0.49989139  0.99998725  0.00035052
   0.99989224  0.49998797  0.00035099
   0.49989172  0.49998760  0.00035023
   0.99989073  0.99998861  0.50035068
   0.49989350  0.99998798  0.50034996
   0.99989051  0.49998755  0.50035170
   0.49989296  0.49998638  0.50035139
Direct configuration=    13
   0.24991288  0.24997227  0.25030793
   0.74991646  0.24997328  0.25030330
   0.24991436  0.74997029  0.25031003
   0.74990956  0.74997367  0.25030713
   0.24990944  0.24997464  0.75030640
   0.74991459  0.24997059  0.75030973
   0.24991596  0.74997312  0.75030351
   0.74991321  0.74997182  0.75030905
   0.99989120  0.99998624  0.00035135
   0.49989139  0.99998725  0.00035051
   0.99989224  0.49998797  0.00035099
   0.49989172  0.49998760  0.00035023
   0.99989073  0.99998861  0.50035067
   0.49989350  0.99998798  0.50034996
   0.99989051  0.49998755  0.50035170
   0.49989296  0.49998638  0.50035139
Direct configuration=    14
   0.24991288  0.24997227  0.25030793
   0.74991646  0.24997328  0.25030330
   0.24991436  0.74997029  0.25031003
   0.74990956  0.74997367  0.25030713
   0.24990944  0.24997464  0.75030640
   0.74991459  0.24997059  0.75030973
   0.24991596  0.74997312  0.75030352
   0.74991321  0.74997182  0.75030905
   0.99989120  0.99998624  0.00035135
   0.49989139  0.99998725  0.00035051
   0.99989224  0.49998797  0.00035099
   0.49989172  0.49998760  0.00035023
   0.99989073  0.99998861  0.50035067
   0.49989350  0.99998798  0.50034996
   0.99989052  0.49998755  0.50035170
   0.49989296  0.49998638  0.50035139
Direct configuration=    15
   0.24991288  0.24997227  0.25030793
   0.74991646  0.24997328  0.25030330
   0.24991436  0.74997029  0.25031003
   0.74990956  0.74997367  0.25030713
   0.24990944  0.24997464  0.75030640
   0.74991459  0.24997059  0.75030973
   0.24991596  0.74997312  0.75030352
   0.74991321  0.74997182  0.75030905
   0.99989120  0.99998624  0.00035135
   0.49989139  0.99998725  0.00035051
   0.99989224  0.49998797  0.00035099
   0.49989172  0.49998760  0.00035023
   0.99989073  0.99998861  0.50035067
   0.49989350  0.99998798  0.50034996
   0.99989052  0.49998755  0.50035170
   0.49989296  0.49998638  0.50035139
Direct configuration=    16
   0.24991288  0.24997227  0.25030793
   0.74991646  0.24997328  0.25030330
   0.24991436  0.74997029  0.25031003
   0.74990956  0.74997367  0.25030713
   0.24990944  0.24997464  0.75030640
   0.74991459  0.24997059  0.75030973
   0.24991596  0.74997312  0.75030352
   0.74991321  0.74997182  0.75030905
   0.99989120  0.99998624  0.00035135
   0.49989139  0.99998725  0.00035051
   0.99989224  0.49998797  0.00035099
   0.49989172  0.49998760  0.00035023
   0.99989073  0.99998861  0.50035067
   0.49989350  0.99998798  0.50034996
   0.99989052  0.49998755  0.50035170
   0.49989296  0.49998638  0.50035139
Direct configuration=    17
   0.24991288  0.24997227  0.25030793
   0.74991646  0.24997328  0.25030330
   0.24991436  0.74997029  0.25031003
   0.74990956  0.74997367  0.25030713
   0.24990944  0.24997464  0.75030640
   0.74991459  0.24997059  0.75030973
   0.24991596  0.74997312  0.75030352
   0.74991321  0.74997182  0.75030905
   0.99989120  0.99998624  0.00035135
   0.49989139  0.99998725  0.00035051
   0.99989224  0.49998797  0.00035099
   0.49989172  0.49998760  0.00035023
   0.99989073  0.99998861  0.50035067
   0.49989350  0.99998798  0.50034996
   0.99989052  0.49998755  0.50035170
   0.49989296  0.49998638  0.50035139
Direct configuration=    18
   0.24991288  0.24997227  0.25030793
   0.74991646  0.24997328  0.25030330
   0.24991436  0.74997029  0.25031003
   0.74990956  0.74997367  0.25030713
   0.24990944  0.24997464  0.75030640
   0.74991459  0.24997059  0.75030973
   0.24991596  0.74997312  0.75030352
   0.74991321  0.74997182  0.75030905
   0.99989120  0.99998624  0.00035135
   0.49989139  0.99998725  0.00035051
   0.99989224  0.49998797  0.00035099
   0.49989172  0.49998760  0.00035023
   0.99989073  0.99998861  0.50035067
   0.49989350  0.99998798  0.50034996
   0.99989052  0.49998755  0.50035170
   0.49989296  0.49998638  0.50035139
Direct configuration=    19
   0.24991288  0.24997227  0.25030793
   0.74991646  0.24997328  0.25030330
   0.24991436  0.74997029  0.25031003
   0.74990956  0.74997367  0.25030713
   0.24990944  0.24997464  0.75030640
   0.74991459  0.24997059  0.75030973
   0.24991596  0.74997312  0.75030352
   0.74991321  0.74997182  0.75030905
   0.99989120  0.99998624  0.00035135
   0.49989139  0.99998725  0.00035051
   0.99989224  0.49998797  0.00035099
   0.49989172  0.49998760  0.00035023
   0.99989073  0.99998861  0.50035067
   0.49989350  0.99998798  0.50034996
   0.99989052  0.49998755  0.50035170
   0.49989296  0.49998638  0.50035139
