       N       E                     dE             d eps       ncg     rms          rms(c)
DAV:   1     0.155567638559E+03    0.15557E+03   -0.26189E+04 10752   0.123E+03
DAV:   2    -0.798201655563E+02   -0.23539E+03   -0.21828E+03 13264   0.169E+02
DAV:   3    -0.934279365470E+02   -0.13608E+02   -0.13384E+02 13904   0.361E+01
DAV:   4    -0.936849704328E+02   -0.25703E+00   -0.25581E+00 13616   0.616E+00
DAV:   5    -0.936915997216E+02   -0.66293E-02   -0.66254E-02 13344   0.933E-01    0.139E+01
RMM:   6    -0.924823726391E+02    0.12092E+01   -0.53517E-01 10752   0.199E+00    0.837E+00
RMM:   7    -0.919265047070E+02    0.55587E+00   -0.12703E+00 10754   0.316E+00    0.456E-01
RMM:   8    -0.919365713433E+02   -0.10067E-01   -0.11729E-01 10803   0.117E+00    0.247E-01
RMM:   9    -0.919399205396E+02   -0.33492E-02   -0.34507E-02 10906   0.575E-01    0.270E-01
RMM:  10    -0.919404714661E+02   -0.55093E-03   -0.59801E-03 10946   0.285E-01    0.275E-01
RMM:  11    -0.919394187634E+02    0.10527E-02   -0.20407E-03 10752   0.176E-01    0.128E+00
RMM:  12    -0.919405801207E+02   -0.11614E-02   -0.21381E-03 10752   0.182E-01    0.194E-01
RMM:  13    -0.919406450315E+02   -0.64911E-04   -0.17953E-04 10829   0.559E-02    0.635E-02
RMM:  14    -0.919406485207E+02   -0.34893E-05   -0.52487E-05 11069   0.291E-02    0.345E-02
RMM:  15    -0.919406475007E+02    0.10200E-05   -0.94183E-06 10752   0.134E-02    0.668E-03
RMM:  16    -0.919406489330E+02   -0.14323E-05   -0.23911E-06 11021   0.626E-03    0.647E-03
RMM:  17    -0.919406487172E+02    0.21582E-06   -0.71446E-07 10752   0.348E-03    0.460E-03
RMM:  18    -0.919406489848E+02   -0.26763E-06   -0.17567E-07 10717   0.168E-03    0.486E-04
RMM:  19    -0.919406489448E+02    0.39981E-07   -0.38939E-08  8633   0.803E-04    0.647E-04
RMM:  20    -0.919406489435E+02    0.13533E-08   -0.12148E-08  7422   0.391E-04
   1 F= -.91940649E+02 E0= -.91940649E+02  d E =-.919406E+02
       N       E                     dE             d eps       ncg     rms          rms(c)
DAV:   1    -0.919433382244E+02   -0.26893E-02   -0.89293E-02 12640   0.100E+00    0.144E-01
RMM:   2    -0.919438614937E+02   -0.52327E-03   -0.58232E-03 10752   0.286E-01    0.554E-02
RMM:   3    -0.919439143916E+02   -0.52898E-04   -0.86377E-04 10772   0.132E-01    0.241E-02
RMM:   4    -0.919439163602E+02   -0.19686E-05   -0.14507E-04 10954   0.562E-02    0.965E-03
RMM:   5    -0.919439184718E+02   -0.21116E-05   -0.30147E-05 11491   0.240E-02    0.314E-03
RMM:   6    -0.919439190368E+02   -0.56509E-06   -0.58319E-06 11353   0.991E-03    0.110E-03
RMM:   7    -0.919439191253E+02   -0.88456E-07   -0.10176E-06 11264   0.398E-03    0.338E-04
RMM:   8    -0.919439191465E+02   -0.21241E-07   -0.23980E-07  9910   0.183E-03    0.234E-04
RMM:   9    -0.919439191503E+02   -0.37298E-08   -0.49315E-08  8752   0.816E-04
   2 F= -.91943919E+02 E0= -.91943919E+02  d E =-.327021E-02
       N       E                     dE             d eps       ncg     rms          rms(c)
DAV:   1    -0.919439268538E+02   -0.77073E-05   -0.22476E-04 13736   0.503E-02    0.725E-03
RMM:   2    -0.919439281335E+02   -0.12797E-05   -0.14307E-05 10752   0.143E-02    0.279E-03
RMM:   3    -0.919439282544E+02   -0.12092E-06   -0.20507E-06 10758   0.654E-03    0.121E-03
RMM:   4    -0.919439282558E+02   -0.13861E-08   -0.33060E-07 10879   0.278E-03    0.484E-04
RMM:   5    -0.919439282601E+02   -0.42910E-08   -0.65830E-08 10029   0.118E-03
   3 F= -.91943928E+02 E0= -.91943928E+02  d E =-.327932E-02
       N       E                     dE             d eps       ncg     rms          rms(c)
DAV:   1    -0.919440180137E+02   -0.89758E-04   -0.22404E-03 12648   0.161E-01    0.256E-02
RMM:   2    -0.919440299621E+02   -0.11948E-04   -0.14957E-04 10752   0.469E-02    0.921E-03
RMM:   3    -0.919440315035E+02   -0.15413E-05   -0.23038E-05 10755   0.214E-02    0.412E-03
RMM:   4    -0.919440316821E+02   -0.17869E-06   -0.37117E-06 11002   0.905E-03    0.181E-03
RMM:   5    -0.919440317350E+02   -0.52815E-07   -0.78746E-07 11231   0.407E-03    0.467E-04
RMM:   6    -0.919440317498E+02   -0.14813E-07   -0.16410E-07 10832   0.176E-03    0.237E-04
RMM:   7    -0.919440317514E+02   -0.16571E-08   -0.27572E-08  8200   0.707E-04
   4 F= -.91944032E+02 E0= -.91944032E+02  d E =-.103491E-03
       N       E                     dE             d eps       ncg     rms          rms(c)
DAV:   1    -0.919440325255E+02   -0.77569E-06   -0.23597E-05 14080   0.165E-02    0.265E-03
RMM:   2    -0.919440326533E+02   -0.12783E-06   -0.16021E-06 10752   0.486E-03    0.947E-04
RMM:   3    -0.919440326715E+02   -0.18174E-07   -0.24998E-07 10756   0.224E-03    0.421E-04
RMM:   4    -0.919440326742E+02   -0.27067E-08   -0.40523E-08  9619   0.950E-04    0.186E-04
RMM:   5    -0.919440326750E+02   -0.78580E-09   -0.85883E-09  6804   0.433E-04
   5 F= -.91944033E+02 E0= -.91944033E+02  d E =-.104415E-03
       N       E                     dE             d eps       ncg     rms          rms(c)
DAV:   1    -0.919440394645E+02   -0.67903E-05   -0.79653E-05 12120   0.308E-02    0.392E-03
RMM:   2    -0.919440397486E+02   -0.28413E-06   -0.34902E-06 10752   0.737E-03    0.175E-03
RMM:   3    -0.919440397788E+02   -0.30163E-07   -0.56772E-07 10786   0.342E-03    0.739E-04
RMM:   4    -0.919440397838E+02   -0.49931E-08   -0.97985E-08 10866   0.148E-03    0.311E-04
RMM:   5    -0.919440397851E+02   -0.13333E-08   -0.17371E-08  7261   0.638E-04
   6 F= -.91944040E+02 E0= -.91944040E+02  d E =-.711015E-05
       N       E                     dE             d eps       ncg     rms          rms(c)
DAV:   1    -0.919440428603E+02   -0.30765E-05   -0.15280E-04 12032   0.427E-02    0.546E-03
RMM:   2    -0.919440434158E+02   -0.55550E-06   -0.67964E-06 10752   0.103E-02    0.243E-03
RMM:   3    -0.919440434753E+02   -0.59499E-07   -0.11075E-06 10788   0.478E-03    0.104E-03
RMM:   4    -0.919440434845E+02   -0.92323E-08   -0.19143E-07 10873   0.207E-03    0.434E-04
RMM:   5    -0.919440434873E+02   -0.27239E-08   -0.34917E-08  8665   0.893E-04
   7 F= -.91944043E+02 E0= -.91944043E+02  d E =-.108123E-04
       N       E                     dE             d eps       ncg     rms          rms(c)
DAV:   1    -0.919440481169E+02   -0.46324E-05   -0.30774E-05 12480   0.196E-02    0.196E-03
RMM:   2    -0.919440481668E+02   -0.49828E-07   -0.76524E-07 10752   0.372E-03    0.114E-03
RMM:   3    -0.919440481716E+02   -0.48758E-08   -0.16263E-07 10804   0.184E-03    0.287E-04
RMM:   4    -0.919440481749E+02   -0.32769E-08   -0.32119E-08  8085   0.814E-04    0.169E-04
RMM:   5    -0.919440481751E+02   -0.21464E-09   -0.51130E-09  6893   0.330E-04
   8 F= -.91944048E+02 E0= -.91944048E+02  d E =-.468787E-05
       N       E                     dE             d eps       ncg     rms          rms(c)
DAV:   1    -0.919440592278E+02   -0.11053E-04   -0.27543E-04 11664   0.588E-02    0.588E-03
RMM:   2    -0.919440596598E+02   -0.43202E-06   -0.68185E-06 10752   0.111E-02    0.342E-03
RMM:   3    -0.919440596961E+02   -0.36300E-07   -0.14495E-06 10805   0.547E-03    0.857E-04
RMM:   4    -0.919440597251E+02   -0.28944E-07   -0.28494E-07 10944   0.242E-03    0.492E-04
RMM:   5    -0.919440597272E+02   -0.21482E-08   -0.45679E-08 10116   0.104E-03
   9 F= -.91944060E+02 E0= -.91944060E+02  d E =-.162400E-04
       N       E                     dE             d eps       ncg     rms          rms(c)
DAV:   1    -0.919440695483E+02   -0.98232E-05   -0.11021E-03 11408   0.118E-01    0.118E-02
RMM:   2    -0.919440712755E+02   -0.17272E-05   -0.27296E-05 10752   0.222E-02    0.683E-03
RMM:   3    -0.919440714178E+02   -0.14230E-06   -0.58022E-06 10805   0.109E-02    0.172E-03
RMM:   4    -0.919440715336E+02   -0.11577E-06   -0.11406E-06 10948   0.484E-03    0.984E-04
RMM:   5    -0.919440715428E+02   -0.92441E-08   -0.18516E-07 10902   0.207E-03    0.332E-04
RMM:   6    -0.919440715462E+02   -0.33979E-08   -0.42373E-08  9644   0.971E-04
  10 F= -.91944072E+02 E0= -.91944072E+02  d E =-.280590E-04
       N       E                     dE             d eps       ncg     rms          rms(c)
DAV:   1    -0.919440720069E+02   -0.46406E-06   -0.82104E-05 12552   0.320E-02    0.318E-03
RMM:   2    -0.919440721382E+02   -0.13130E-06   -0.20423E-06 10752   0.607E-03    0.186E-03
RMM:   3    -0.919440721492E+02   -0.11013E-07   -0.43112E-07 10807   0.299E-03    0.473E-04
RMM:   4    -0.919440721578E+02   -0.86438E-08   -0.85006E-08 10894   0.132E-03    0.271E-04
RMM:   5    -0.919440721586E+02   -0.71941E-09   -0.13651E-08  7149   0.564E-04
  11 F= -.91944072E+02 E0= -.91944072E+02  d E =-.286713E-04
       N       E                     dE             d eps       ncg     rms          rms(c)
DAV:   1    -0.919440742668E+02   -0.21090E-05   -0.12353E-04 11680   0.381E-02    0.505E-03
RMM:   2    -0.919440747481E+02   -0.48126E-06   -0.60459E-06 10752   0.964E-03    0.218E-03
RMM:   3    -0.919440747860E+02   -0.37939E-07   -0.96340E-07 10777   0.446E-03    0.930E-04
RMM:   4    -0.919440747925E+02   -0.64301E-08   -0.16873E-07 10829   0.193E-03    0.407E-04
RMM:   5    -0.919440747948E+02   -0.23556E-08   -0.30476E-08  8307   0.823E-04
  12 F= -.91944075E+02 E0= -.91944075E+02  d E =-.263627E-05
       N       E                     dE             d eps       ncg     rms          rms(c)
DAV:   1    -0.919440748001E+02   -0.76734E-08   -0.32906E-07 13848   0.203E-03    0.269E-04
RMM:   2    -0.919440748013E+02   -0.11196E-08   -0.15047E-08  6205   0.466E-04    0.121E-04
RMM:   3    -0.919440748012E+02    0.46384E-10   -0.16973E-09  5855   0.187E-04    0.526E-05
RMM:   4    -0.919440748011E+02    0.70941E-10   -0.56207E-12  1748   0.752E-05    0.270E-05
RMM:   5    -0.919440748011E+02    0.90949E-11   -0.13135E-12  1340   0.764E-05
  13 F= -.91944075E+02 E0= -.91944075E+02  d E =-.264258E-05
       N       E                     dE             d eps       ncg     rms          rms(c)
DAV:   1    -0.919440752460E+02   -0.44484E-06   -0.55436E-06 11856   0.839E-03    0.110E-03
RMM:   2    -0.919440752579E+02   -0.11932E-07   -0.22323E-07 10752   0.185E-03    0.500E-04
RMM:   3    -0.919440752593E+02   -0.13761E-08   -0.43079E-08 10110   0.880E-04    0.219E-04
RMM:   4    -0.919440752598E+02   -0.53024E-09   -0.80328E-09  6737   0.394E-04    0.859E-05
RMM:   5    -0.919440752600E+02   -0.17189E-09   -0.15461E-09  6400   0.175E-04
  14 F= -.91944075E+02 E0= -.91944075E+02  d E =-.458857E-06
       N       E                     dE             d eps       ncg     rms          rms(c)
DAV:   1    -0.919440755842E+02   -0.32437E-06   -0.21585E-05 11568   0.165E-02    0.216E-03
RMM:   2    -0.919440756328E+02   -0.48583E-07   -0.86989E-07 10752   0.367E-03    0.982E-04
RMM:   3    -0.919440756379E+02   -0.51532E-08   -0.16784E-07 10793   0.174E-03    0.431E-04
RMM:   4    -0.919440756397E+02   -0.17972E-08   -0.32374E-08  8190   0.785E-04    0.167E-04
RMM:   5    -0.919440756402E+02   -0.51386E-09   -0.54612E-09  7046   0.336E-04
  15 F= -.91944076E+02 E0= -.91944076E+02  d E =-.839107E-06
       N       E                     dE             d eps       ncg     rms          rms(c)
DAV:   1    -0.919440759905E+02   -0.35076E-06   -0.43360E-06 12392   0.734E-03    0.757E-04
RMM:   2    -0.919440759981E+02   -0.76334E-08   -0.11859E-07 10752   0.144E-03    0.430E-04
RMM:   3    -0.919440759989E+02   -0.74215E-09   -0.24792E-08  7312   0.706E-04    0.131E-04
RMM:   4    -0.919440759993E+02   -0.38835E-09   -0.43917E-09  6348   0.302E-04    0.668E-05
RMM:   5    -0.919440759993E+02   -0.45475E-10   -0.88198E-10  6087   0.132E-04
  16 F= -.91944076E+02 E0= -.91944076E+02  d E =-.359058E-06
       N       E                     dE             d eps       ncg     rms          rms(c)
DAV:   1    -0.919440766576E+02   -0.65837E-06   -0.38821E-05 11504   0.220E-02    0.226E-03
RMM:   2    -0.919440767245E+02   -0.66849E-07   -0.10504E-06 10752   0.429E-03    0.129E-03
RMM:   3    -0.919440767304E+02   -0.59454E-08   -0.21714E-07 10802   0.210E-03    0.376E-04
RMM:   4    -0.919440767344E+02   -0.39663E-08   -0.43139E-08  9148   0.940E-04    0.195E-04
RMM:   5    -0.919440767347E+02   -0.32105E-09   -0.67982E-09  7038   0.385E-04
  17 F= -.91944077E+02 E0= -.91944077E+02  d E =-.109446E-05
       N       E                     dE             d eps       ncg     rms          rms(c)
DAV:   1    -0.919440763609E+02    0.37345E-06   -0.15536E-04 11360   0.440E-02    0.453E-03
RMM:   2    -0.919440766281E+02   -0.26712E-06   -0.42067E-06 10752   0.858E-03    0.257E-03
RMM:   3    -0.919440766518E+02   -0.23702E-07   -0.87007E-07 10804   0.420E-03    0.751E-04
RMM:   4    -0.919440766678E+02   -0.16055E-07   -0.17308E-07 10919   0.188E-03    0.383E-04
RMM:   5    -0.919440766693E+02   -0.14988E-08   -0.28359E-08  7843   0.803E-04
  18 F= -.91944077E+02 E0= -.91944077E+02  d E =-.102907E-05
       N       E                     dE             d eps       ncg     rms          rms(c)
DAV:   1    -0.919440768637E+02   -0.19584E-06   -0.48897E-05 11424   0.248E-02    0.255E-03
RMM:   2    -0.919440769461E+02   -0.82420E-07   -0.13127E-06 10752   0.477E-03    0.145E-03
RMM:   3    -0.919440769529E+02   -0.67894E-08   -0.26697E-07 10799   0.232E-03    0.423E-04
RMM:   4    -0.919440769578E+02   -0.49713E-08   -0.52535E-08 10041   0.104E-03    0.216E-04
RMM:   5    -0.919440769583E+02   -0.44838E-09   -0.81853E-09  6806   0.428E-04
  19 F= -.91944077E+02 E0= -.91944077E+02  d E =-.131804E-05
       N       E                     dE             d eps       ncg     rms          rms(c)
DAV:   1    -0.919440769580E+02   -0.20464E-09   -0.48890E-07 12576   0.251E-03    0.262E-04
RMM:   2    -0.919440769588E+02   -0.78035E-09   -0.12973E-08  5818   0.464E-04    0.148E-04
RMM:   3    -0.919440769588E+02   -0.27285E-11   -0.20372E-09  5680   0.204E-04    0.523E-05
RMM:   4    -0.919440769588E+02    0.72760E-11   -0.79399E-11  1290   0.858E-05    0.274E-05
RMM:   5    -0.919440769588E+02    0.45475E-11   -0.35741E-12   761   0.803E-05
  20 F= -.91944077E+02 E0= -.91944077E+02  d E =-.131856E-05
       N       E                     dE             d eps       ncg     rms          rms(c)
DAV:   1    -0.919440769616E+02   -0.28349E-08   -0.47767E-06 11584   0.748E-03    0.991E-04
RMM:   2    -0.919440769819E+02   -0.20264E-07   -0.23420E-07 10752   0.188E-03    0.419E-04
RMM:   3    -0.919440769844E+02   -0.24420E-08   -0.36261E-08  8576   0.862E-04    0.191E-04
RMM:   4    -0.919440769846E+02   -0.20282E-09   -0.54429E-09  6624   0.356E-04    0.759E-05
RMM:   5    -0.919440769846E+02   -0.64574E-10   -0.10765E-09  6222   0.148E-04
  21 F= -.91944077E+02 E0= -.91944077E+02  d E =-.258133E-07
       N       E                     dE             d eps       ncg     rms          rms(c)
DAV:   1    -0.919440770043E+02   -0.19787E-07   -0.81589E-07 11536   0.311E-03    0.413E-04
RMM:   2    -0.919440770078E+02   -0.34725E-08   -0.39586E-08  8771   0.766E-04    0.175E-04
RMM:   3    -0.919440770081E+02   -0.33378E-09   -0.58078E-09  5569   0.342E-04    0.831E-05
RMM:   4    -0.919440770081E+02    0.59117E-10   -0.80565E-10  5539   0.137E-04    0.359E-05
RMM:   5    -0.919440770081E+02   -0.11823E-10   -0.79305E-12  1225   0.599E-05
  22 F= -.91944077E+02 E0= -.91944077E+02  d E =-.492946E-07
       N       E                     dE             d eps       ncg     rms          rms(c)
DAV:   1    -0.919440770081E+02   -0.18190E-11   -0.50088E-10  7752   0.920E-05    0.271E-05
RMM:   2    -0.919440770081E+02   -0.34561E-10   -0.31267E-13   646   0.337E-05    0.257E-05
RMM:   3    -0.919440770081E+02    0.27285E-11    0.00000E+00   359   0.335E-05    0.249E-05
RMM:   4    -0.919440770081E+02    0.00000E+00    0.00000E+00   298   0.335E-05    0.249E-05
RMM:   5    -0.919440770081E+02    0.90949E-12    0.00000E+00   267   0.335E-05
  23 F= -.91944077E+02 E0= -.91944077E+02  d E =-.493155E-07
       N       E                     dE             d eps       ncg     rms          rms(c)
DAV:   1    -0.919440770097E+02   -0.15907E-08   -0.78560E-08 10904   0.957E-04    0.139E-04
RMM:   2    -0.919440770102E+02   -0.51477E-09   -0.65231E-09  5452   0.310E-04    0.575E-05
RMM:   3    -0.919440770102E+02    0.37289E-10   -0.77264E-10  4781   0.126E-04    0.379E-05
RMM:   4    -0.919440770102E+02    0.22737E-10   -0.75346E-11  1048   0.643E-05    0.264E-05
RMM:   5    -0.919440770102E+02   -0.18190E-11   -0.69761E-12   450   0.594E-05
  24 F= -.91944077E+02 E0= -.91944077E+02  d E =-.204818E-08
       N       E                     dE             d eps       ncg     rms          rms(c)
DAV:   1    -0.919440770102E+02   -0.49113E-10   -0.15765E-09  6456   0.139E-04    0.313E-05
RMM:   2    -0.919440770102E+02   -0.27285E-11    0.00000E+00   663   0.566E-05    0.274E-05
RMM:   3    -0.919440770102E+02    0.19099E-10    0.00000E+00   184   0.575E-05    0.249E-05
RMM:   4    -0.919440770102E+02    0.18190E-11    0.00000E+00   154   0.579E-05    0.249E-05
RMM:   5    -0.919440770102E+02   -0.36380E-11    0.00000E+00   149   0.579E-05
  25 F= -.91944077E+02 E0= -.91944077E+02  d E =-.208092E-08
       N       E                     dE             d eps       ncg     rms          rms(c)
DAV:   1    -0.919440770102E+02   -0.37289E-10   -0.22627E-10  6664   0.601E-05    0.266E-05
RMM:   2    -0.919440770102E+02    0.20918E-10    0.00000E+00   454   0.200E-05    0.255E-05
RMM:   3    -0.919440770102E+02   -0.20918E-10    0.00000E+00   193   0.208E-05    0.249E-05
RMM:   4    -0.919440770102E+02    0.45475E-11    0.00000E+00   139   0.209E-05    0.249E-05
RMM:   5    -0.919440770102E+02   -0.27285E-11    0.00000E+00   136   0.209E-05
  26 F= -.91944077E+02 E0= -.91944077E+02  d E =-.211276E-08
       N       E                     dE             d eps       ncg     rms          rms(c)
DAV:   1    -0.919440770102E+02   -0.81855E-11   -0.42945E-12  6504   0.240E-05    0.250E-05
RMM:   2    -0.919440770102E+02    0.90949E-12    0.00000E+00   355   0.121E-05    0.249E-05
RMM:   3    -0.919440770102E+02    0.18190E-11    0.00000E+00   162   0.127E-05    0.249E-05
RMM:   4    -0.919440770102E+02    0.27285E-11    0.00000E+00   127   0.127E-05    0.249E-05
RMM:   5    -0.919440770102E+02    0.00000E+00    0.00000E+00   127   0.127E-05
  27 F= -.91944077E+02 E0= -.91944077E+02  d E =-.211276E-08
       N       E                     dE             d eps       ncg     rms          rms(c)
DAV:   1    -0.919440770103E+02   -0.84583E-10   -0.30862E-09  6456   0.200E-04    0.346E-05
RMM:   2    -0.919440770103E+02    0.20918E-10   -0.51993E-11  1036   0.804E-05    0.286E-05
RMM:   3    -0.919440770103E+02   -0.15461E-10   -0.40022E-11   438   0.786E-05    0.249E-05
RMM:   4    -0.919440770103E+02    0.45475E-11   -0.21987E-12   155   0.755E-05    0.249E-05
RMM:   5    -0.919440770103E+02   -0.63665E-11   -0.20708E-13   128   0.753E-05
  28 F= -.91944077E+02 E0= -.91944077E+02  d E =-.809450E-10
       N       E                     dE             d eps       ncg     rms          rms(c)
DAV:   1    -0.919440770104E+02   -0.10004E-09   -0.60788E-10  6456   0.970E-05    0.324E-05
RMM:   2    -0.919440770104E+02    0.52751E-10    0.00000E+00   214   0.255E-05    0.279E-05
RMM:   3    -0.919440770103E+02    0.25466E-10    0.00000E+00   129   0.283E-05    0.249E-05
RMM:   4    -0.919440770103E+02   -0.63665E-11    0.00000E+00   126   0.285E-05    0.249E-05
RMM:   5    -0.919440770103E+02    0.18190E-11    0.00000E+00   125   0.285E-05
  29 F= -.91944077E+02 E0= -.91944077E+02  d E =-.100954E-09
       N       E                     dE             d eps       ncg     rms          rms(c)
DAV:   1    -0.919440770103E+02    0.90949E-11   -0.47214E-11  6456   0.340E-05    0.263E-05
RMM:   2    -0.919440770103E+02   -0.11823E-10    0.00000E+00   202   0.151E-05    0.254E-05
RMM:   3    -0.919440770103E+02   -0.90949E-12    0.00000E+00   129   0.174E-05    0.249E-05
RMM:   4    -0.919440770103E+02    0.90949E-12    0.00000E+00   125   0.176E-05    0.249E-05
RMM:   5    -0.919440770103E+02   -0.18190E-11    0.00000E+00   124   0.176E-05
  30 F= -.91944077E+02 E0= -.91944077E+02  d E =-.107320E-09
       N       E                     dE             d eps       ncg     rms          rms(c)
DAV:   1    -0.919440770103E+02    0.11823E-10    0.10256E-11  6512   0.160E-05    0.251E-05
RMM:   2    -0.919440770103E+02   -0.10914E-10    0.00000E+00   226   0.796E-06    0.250E-05
RMM:   3    -0.919440770103E+02    0.45475E-11    0.00000E+00   139   0.860E-06    0.249E-05
RMM:   4    -0.919440770103E+02   -0.18190E-11    0.00000E+00   125   0.866E-06    0.249E-05
RMM:   5    -0.919440770103E+02   -0.90949E-12    0.00000E+00   124   0.867E-06
  31 F= -.91944077E+02 E0= -.91944077E+02  d E =-.102773E-09
       N       E                     dE             d eps       ncg     rms          rms(c)
DAV:   1    -0.919440770104E+02   -0.36380E-10    0.24328E-11  6424   0.909E-06    0.249E-05
RMM:   2    -0.919440770104E+02    0.22737E-10    0.00000E+00   179   0.448E-06    0.249E-05
RMM:   3    -0.919440770104E+02   -0.90949E-12    0.00000E+00   134   0.487E-06    0.249E-05
RMM:   4    -0.919440770104E+02    0.18190E-11    0.00000E+00   124   0.490E-06    0.249E-05
RMM:   5    -0.919440770104E+02   -0.36380E-11    0.00000E+00   123   0.490E-06
  32 F= -.91944077E+02 E0= -.91944077E+02  d E =-.118234E-09
       N       E                     dE             d eps       ncg     rms          rms(c)
DAV:   1    -0.919440770103E+02    0.36380E-10    0.28654E-11  6440   0.526E-06    0.249E-05
RMM:   2    -0.919440770104E+02   -0.37289E-10    0.00000E+00   169   0.286E-06    0.249E-05
RMM:   3    -0.919440770104E+02    0.90949E-12    0.00000E+00   127   0.297E-06    0.249E-05
RMM:   4    -0.919440770103E+02    0.18190E-11    0.00000E+00   124   0.298E-06    0.249E-05
RMM:   5    -0.919440770103E+02    0.27285E-11    0.00000E+00   123   0.298E-06
  33 F= -.91944077E+02 E0= -.91944077E+02  d E =-.110049E-09
       N       E                     dE             d eps       ncg     rms          rms(c)
DAV:   1    -0.919440770104E+02   -0.90949E-11    0.30171E-11  6408   0.316E-06    0.249E-05
RMM:   2    -0.919440770103E+02    0.18190E-10    0.00000E+00   157   0.169E-06    0.249E-05
RMM:   3    -0.919440770103E+02   -0.18190E-11    0.00000E+00   124   0.180E-06    0.249E-05
RMM:   4    -0.919440770103E+02   -0.18190E-11    0.00000E+00   120   0.181E-06    0.249E-05
RMM:   5    -0.919440770103E+02    0.72760E-11    0.00000E+00   119   0.181E-06
  34 F= -.91944077E+02 E0= -.91944077E+02  d E =-.100044E-09
       N       E                     dE             d eps       ncg     rms          rms(c)
DAV:   1    -0.919440770103E+02    0.27285E-10    0.30535E-11  6408   0.200E-06    0.249E-05
RMM:   2    -0.919440770103E+02   -0.26375E-10    0.00000E+00   158   0.111E-06    0.249E-05
RMM:   3    -0.919440770103E+02    0.54570E-11    0.00000E+00   123   0.115E-06    0.249E-05
RMM:   4    -0.919440770103E+02   -0.36380E-11    0.00000E+00   121   0.115E-06    0.249E-05
RMM:   5    -0.919440770103E+02    0.36380E-11    0.00000E+00   119   0.115E-06
  35 F= -.91944077E+02 E0= -.91944077E+02  d E =-.100954E-09
       N       E                     dE             d eps       ncg     rms          rms(c)
DAV:   1    -0.919440770104E+02   -0.30923E-10    0.30780E-11  6352   0.118E-06    0.249E-05
RMM:   2    -0.919440770103E+02    0.26375E-10    0.00000E+00   141   0.623E-07    0.249E-05
RMM:   3    -0.919440770103E+02    0.18190E-11    0.00000E+00   117   0.657E-07    0.249E-05
RMM:   4    -0.919440770103E+02   -0.18190E-11    0.00000E+00   115   0.660E-07    0.249E-05
RMM:   5    -0.919440770103E+02    0.00000E+00    0.00000E+00   114   0.660E-07
  36 F= -.91944077E+02 E0= -.91944077E+02  d E =-.109139E-09
       N       E                     dE             d eps       ncg     rms          rms(c)
DAV:   1    -0.919440770104E+02   -0.46384E-10    0.30825E-11  6384   0.698E-07    0.249E-05
RMM:   2    -0.919440770104E+02    0.38199E-10    0.00000E+00   146   0.391E-07    0.249E-05
RMM:   3    -0.919440770104E+02    0.18190E-11    0.00000E+00   117   0.405E-07    0.249E-05
RMM:   4    -0.919440770103E+02    0.18190E-11    0.00000E+00   116   0.407E-07    0.249E-05
RMM:   5    -0.919440770104E+02   -0.90949E-12    0.00000E+00   113   0.407E-07
  37 F= -.91944077E+02 E0= -.91944077E+02  d E =-.114596E-09
       N       E                     dE             d eps       ncg     rms          rms(c)
DAV:   1    -0.919440770104E+02   -0.39108E-10    0.31074E-11  6272   0.413E-07    0.249E-05
RMM:   2    -0.919440770104E+02    0.37289E-10    0.00000E+00   126   0.219E-07    0.249E-05
RMM:   3    -0.919440770104E+02    0.00000E+00    0.00000E+00   107   0.229E-07    0.249E-05
RMM:   4    -0.919440770104E+02   -0.18190E-11    0.00000E+00   104   0.230E-07    0.249E-05
RMM:   5    -0.919440770103E+02    0.36380E-11    0.00000E+00   104   0.230E-07
  38 F= -.91944077E+02 E0= -.91944077E+02  d E =-.113687E-09
       N       E                     dE             d eps       ncg     rms          rms(c)
DAV:   1    -0.919440770104E+02   -0.34561E-10    0.31015E-11  6256   0.238E-07    0.249E-05
RMM:   2    -0.919440770103E+02    0.43656E-10    0.00000E+00   129   0.135E-07    0.249E-05
RMM:   3    -0.919440770103E+02    0.45475E-11    0.00000E+00   110   0.139E-07    0.249E-05
RMM:   4    -0.919440770103E+02   -0.27285E-11    0.00000E+00   107   0.140E-07    0.249E-05
RMM:   5    -0.919440770103E+02    0.00000E+00    0.00000E+00   104   0.140E-07
  39 F= -.91944077E+02 E0= -.91944077E+02  d E =-.106411E-09
       N       E                     dE             d eps       ncg     rms          rms(c)
DAV:   1    -0.919440770103E+02    0.90949E-11    0.30924E-11  6136   0.141E-07    0.249E-05
RMM:   2    -0.919440770103E+02   -0.27285E-11    0.00000E+00   120   0.759E-08    0.249E-05
RMM:   3    -0.919440770103E+02   -0.90949E-12    0.00000E+00   103   0.790E-08    0.249E-05
RMM:   4    -0.919440770103E+02    0.90949E-12    0.00000E+00    98   0.794E-08    0.249E-05
RMM:   5    -0.919440770103E+02   -0.27285E-11    0.00000E+00    97   0.794E-08
  40 F= -.91944077E+02 E0= -.91944077E+02  d E =-.102773E-09
       N       E                     dE             d eps       ncg     rms          rms(c)
DAV:   1    -0.919440770103E+02   -0.63665E-11    0.31119E-11  6104   0.810E-08    0.249E-05
RMM:   2    -0.919440770103E+02    0.18190E-11    0.00000E+00   120   0.466E-08    0.249E-05
RMM:   3    -0.919440770103E+02   -0.18190E-11    0.00000E+00    99   0.481E-08    0.249E-05
RMM:   4    -0.919440770103E+02   -0.54570E-11    0.00000E+00    98   0.484E-08    0.249E-05
RMM:   5    -0.919440770103E+02    0.36380E-11    0.00000E+00    98   0.484E-08
  41 F= -.91944077E+02 E0= -.91944077E+02  d E =-.108230E-09
       N       E                     dE             d eps       ncg     rms          rms(c)
DAV:   1    -0.919440770104E+02   -0.15461E-10    0.31162E-11  6112   0.487E-08    0.249E-05
RMM:   2    -0.919440770103E+02    0.21828E-10    0.00000E+00   120   0.265E-08    0.249E-05
RMM:   3    -0.919440770103E+02    0.18190E-11    0.00000E+00   100   0.274E-08    0.249E-05
RMM:   4    -0.919440770103E+02   -0.27285E-11    0.00000E+00    97   0.276E-08    0.249E-05
RMM:   5    -0.919440770103E+02    0.00000E+00    0.00000E+00    96   0.276E-08
  42 F= -.91944077E+02 E0= -.91944077E+02  d E =-.106411E-09
       N       E                     dE             d eps       ncg     rms          rms(c)
DAV:   1    -0.919440770104E+02   -0.14552E-10    0.31079E-11  6088   0.279E-08    0.249E-05
RMM:   2    -0.919440770103E+02    0.20009E-10    0.00000E+00   118   0.164E-08    0.249E-05
RMM:   3    -0.919440770103E+02    0.18190E-11    0.00000E+00   100   0.169E-08    0.249E-05
RMM:   4    -0.919440770103E+02   -0.36380E-11    0.00000E+00    95   0.170E-08    0.249E-05
RMM:   5    -0.919440770103E+02    0.00000E+00    0.00000E+00    95   0.170E-08
  43 F= -.91944077E+02 E0= -.91944077E+02  d E =-.102773E-09
       N       E                     dE             d eps       ncg     rms          rms(c)
DAV:   1    -0.919440770103E+02    0.17280E-10    0.30852E-11  6072   0.171E-08    0.249E-05
RMM:   2    -0.919440770103E+02   -0.27285E-10    0.00000E+00   117   0.939E-09    0.249E-05
RMM:   3    -0.919440770104E+02   -0.18190E-11    0.00000E+00    99   0.971E-09    0.249E-05
RMM:   4    -0.919440770103E+02    0.90949E-12    0.00000E+00    95   0.975E-09    0.249E-05
RMM:   5    -0.919440770104E+02   -0.90949E-12    0.00000E+00    94   0.975E-09
  44 F= -.91944077E+02 E0= -.91944077E+02  d E =-.114596E-09
       N       E                     dE             d eps       ncg     rms          rms(c)
DAV:   1    -0.919440770104E+02   -0.27285E-11    0.31074E-11  6120   0.982E-09    0.249E-05
RMM:   2    -0.919440770104E+02   -0.72760E-11    0.00000E+00   121   0.592E-09    0.249E-05
RMM:   3    -0.919440770104E+02    0.18190E-11    0.00000E+00   105   0.610E-09    0.249E-05
RMM:   4    -0.919440770104E+02    0.00000E+00    0.00000E+00   103   0.612E-09    0.249E-05
RMM:   5    -0.919440770104E+02   -0.90949E-12    0.00000E+00   103   0.612E-09
  45 F= -.91944077E+02 E0= -.91944077E+02  d E =-.122782E-09
       N       E                     dE             d eps       ncg     rms          rms(c)
DAV:   1    -0.919440770102E+02    0.17189E-09   -0.17315E-09  6096   0.151E-04    0.304E-05
RMM:   2    -0.919440770102E+02   -0.26375E-10    0.00000E+00   114   0.604E-05    0.271E-05
RMM:   3    -0.919440770102E+02    0.10004E-10    0.00000E+00   103   0.625E-05    0.249E-05
RMM:   4    -0.919440770102E+02   -0.90949E-12    0.00000E+00    97   0.627E-05    0.249E-05
RMM:   5    -0.919440770102E+02   -0.18190E-11    0.00000E+00    94   0.627E-05
  46 F= -.91944077E+02 E0= -.91944077E+02  d E =0.309228E-10
