unknown system                          
           1
     0.000000    5.443702    5.443702
     5.443702    0.000000    5.443702
     5.443702    5.443702    0.000000
   Si
    16
Direct configuration=     1
   0.12559428  0.12544069  0.12529412
   0.62492188  0.12490423  0.12595270
   0.12474603  0.62495754  0.12554301
   0.62568377  0.62443573  0.12445031
   0.12484131  0.12586265  0.62587769
   0.62517214  0.12474251  0.62552643
   0.12520280  0.62540766  0.62528821
   0.62538577  0.62560848  0.62545670
   0.99985281  0.00089526  0.00045304
   0.49948385  0.99976920  0.00064355
   0.99953963  0.50038148  0.00034469
   0.50045390  0.50065763  0.99965620
   0.99992529  0.00041396  0.50016771
   0.50036506  0.99947814  0.50077689
   0.99957831  0.49947040  0.50076889
   0.49979694  0.49963581  0.50086376
Direct configuration=     2
   0.12506874  0.12549799  0.12540002
   0.62480979  0.12512797  0.12557001
   0.12485266  0.62530137  0.12537503
   0.62502385  0.62475035  0.12537915
   0.12505699  0.12508264  0.62572874
   0.62505700  0.12481043  0.62563902
   0.12492668  0.62527579  0.62521428
   0.62512908  0.62509242  0.62527575
   0.99991620  0.00039850  0.00079915
   0.50022096  0.99964678  0.00055182
   0.00010362  0.50029784  0.00009627
   0.49997709  0.50009653  0.00013921
   0.00016354  0.00045010  0.50039547
   0.49999227  0.00010159  0.50066524
   0.00000344  0.50017563  0.50046472
   0.50024187  0.49995545  0.50037002
Direct configuration=     3
   0.12509516  0.12549511  0.12539469
   0.62481542  0.12511673  0.12558924
   0.12484730  0.62528409  0.12538347
   0.62505701  0.62473453  0.12533247
   0.12504615  0.12512184  0.62573622
   0.62506279  0.12480701  0.62563336
   0.12494055  0.62528242  0.62521799
   0.62514198  0.62511835  0.62528485
   0.99991301  0.00042346  0.00078175
   0.50018392  0.99965293  0.00055643
   0.00007528  0.50030205  0.00010875
   0.50000105  0.50012473  0.00011494
   0.00015157  0.00044828  0.50038402
   0.50001100  0.00007026  0.50067085
  -0.00001793  0.50014019  0.50048001
   0.50021951  0.49993938  0.50039483
Direct configuration=     4
   0.12515438  0.12539222  0.12542816
   0.62486375  0.12508397  0.12555524
   0.12488984  0.62532372  0.12536715
   0.62506190  0.62474226  0.12541384
   0.12502294  0.12512367  0.62576378
   0.62512939  0.12492547  0.62559712
   0.12508192  0.62533543  0.62514360
   0.62509405  0.62511111  0.62525765
   0.99987521  0.00033160  0.00077022
   0.50015859  0.99973817  0.00058898
   0.00004387  0.50036695  0.00013736
   0.49987958  0.50007208  0.00024658
   0.00011537  0.00034740  0.50043665
   0.49998898  0.00009733  0.50056855
   0.00006828  0.50013157  0.50037977
   0.50011571  0.49993842  0.50040924
Direct configuration=     5
   0.12516044  0.12538169  0.12543159
   0.62486869  0.12508061  0.12555176
   0.12489420  0.62532777  0.12536548
   0.62506240  0.62474305  0.12542217
   0.12502057  0.12512385  0.62576660
   0.62513621  0.12493759  0.62559341
   0.12509639  0.62534085  0.62513599
   0.62508915  0.62511037  0.62525487
   0.99987134  0.00032221  0.00076904
   0.50015600  0.99974689  0.00059231
   0.00004066  0.50037359  0.00014029
   0.49986715  0.50006670  0.00026005
   0.00011167  0.00033708  0.50044204
   0.49998673  0.00010010  0.50055808
   0.00007711  0.50013069  0.50036951
   0.50010509  0.49993833  0.50041071
Direct configuration=     6
   0.12514786  0.12535324  0.12544109
   0.62488223  0.12507085  0.12554963
   0.12488884  0.62531519  0.12536841
   0.62504963  0.62477309  0.12541424
   0.12500098  0.12513478  0.62574779
   0.62512215  0.12495390  0.62558264
   0.12510297  0.62532625  0.62515567
   0.62507495  0.62510263  0.62527288
   0.99988282  0.00031167  0.00074489
   0.50014796  0.99977852  0.00058585
   0.00005225  0.50036369  0.00016106
   0.49988604  0.50007194  0.00027834
   0.00012157  0.00032003  0.50044176
   0.50000507  0.00010315  0.50054433
   0.00008403  0.50013395  0.50036333
   0.50009442  0.49994848  0.50041198
Direct configuration=     7
   0.12513045  0.12531388  0.12545424
   0.62490096  0.12505734  0.12554668
   0.12488144  0.62529777  0.12537247
   0.62503197  0.62481465  0.12540327
   0.12497388  0.12514989  0.62572175
   0.62510269  0.12497646  0.62556775
   0.12511208  0.62530605  0.62518290
   0.62505530  0.62509192  0.62529779
   0.99989870  0.00029710  0.00071148
   0.50013684  0.99982229  0.00057692
   0.00006830  0.50035000  0.00018980
   0.49991219  0.50007920  0.00030363
   0.00013528  0.00029643  0.50044138
   0.50003043  0.00010738  0.50052531
   0.00009361  0.50013847  0.50035479
   0.50007964  0.49996254  0.50041374
Direct configuration=     8
   0.12512194  0.12530032  0.12545656
   0.62491289  0.12505913  0.12554267
   0.12489141  0.62528885  0.12537404
   0.62503270  0.62484128  0.12539932
   0.12497759  0.12515533  0.62569982
   0.62510024  0.12498451  0.62555983
   0.12510949  0.62529249  0.62520267
   0.62505259  0.62508886  0.62531004
   0.99990686  0.00028690  0.00069201
   0.50012653  0.99984541  0.00056802
   0.00006703  0.50033180  0.00020759
   0.49991976  0.50007881  0.00031565
   0.00013096  0.00028456  0.50044380
   0.50002993  0.00010567  0.50052428
   0.00008630  0.50014522  0.50035856
   0.50007756  0.49997222  0.50040903
Direct configuration=     9
   0.12509643  0.12525964  0.12546352
   0.62494867  0.12506450  0.12553067
   0.12492134  0.62526209  0.12537875
   0.62503492  0.62492118  0.12538748
   0.12498873  0.12517166  0.62563403
   0.62509287  0.12500865  0.62553608
   0.12510174  0.62525180  0.62526199
   0.62504445  0.62507966  0.62534679
   0.99993131  0.00025630  0.00063357
   0.50009558  0.99991476  0.00054133
   0.00006321  0.50027720  0.00026097
   0.49994248  0.50007767  0.00035170
   0.00011800  0.00024894  0.50045104
   0.50002840  0.00010057  0.50052121
   0.00006435  0.50016549  0.50036989
   0.50007133  0.50000125  0.50039489
Direct configuration=    10
   0.12504539  0.12517829  0.12547744
   0.62502022  0.12507523  0.12550666
   0.12498119  0.62520856  0.12538817
   0.62503935  0.62508098  0.12536379
   0.12501099  0.12520433  0.62550244
   0.62507814  0.12505694  0.62548859
   0.12508622  0.62517043  0.62538062
   0.62502817  0.62506126  0.62542027
   0.99998023  0.00019510  0.00051671
   0.50003367  0.00005346  0.00048795
   0.00005557  0.50016801  0.00036772
   0.49998791  0.50007537  0.00042380
   0.00009208  0.00017769  0.50046552
   0.50002535  0.00009035  0.50051505
   0.00002045  0.50020601  0.50039255
   0.50005885  0.50005933  0.50036662
Direct configuration=    11
   0.12503150  0.12515615  0.12548123
   0.62503970  0.12507816  0.12550013
   0.12499748  0.62519399  0.12539073
   0.62504055  0.62512447  0.12535734
   0.12501705  0.12521322  0.62546662
   0.62507413  0.12507008  0.62547567
   0.12508200  0.62514829  0.62541291
   0.62502374  0.62505625  0.62544027
   0.99999354  0.00017844  0.00048491
   0.50001682  0.00009121  0.00047342
   0.00005349  0.50013830  0.00039678
   0.50000028  0.50007475  0.00044342
   0.00008502  0.00015831  0.50046946
   0.50002452  0.00008757  0.50051338
   0.00000851  0.50021704  0.50039872
   0.50005545  0.50007514  0.50035893
Direct configuration=    12
   0.12501808  0.12512986  0.12548044
   0.62502027  0.12508218  0.12550517
   0.12501598  0.62516789  0.12540699
   0.62504662  0.62513527  0.12536481
   0.12502814  0.12521540  0.62544461
   0.62506997  0.12508657  0.62545788
   0.12506324  0.62513831  0.62542600
   0.62500293  0.62507314  0.62544762
   0.00002866  0.00016894  0.00043955
   0.50001744  0.00014034  0.00045679
   0.00003852  0.50012681  0.00042510
   0.50001539  0.50008296  0.00044988
   0.00006695  0.00013588  0.50048025
   0.50003000  0.00007282  0.50050730
   0.00000969  0.50021652  0.50040700
   0.50007190  0.50008847  0.50036449
Direct configuration=    13
   0.12501879  0.12513126  0.12548048
   0.62502129  0.12508196  0.12550490
   0.12501500  0.62516927  0.12540613
   0.62504630  0.62513470  0.12536442
   0.12502756  0.12521529  0.62544578
   0.62507019  0.12508570  0.62545882
   0.12506423  0.62513884  0.62542531
   0.62500403  0.62507225  0.62544724
   0.00002680  0.00016945  0.00044195
   0.50001741  0.00013774  0.00045767
   0.00003931  0.50012741  0.00042360
   0.50001459  0.50008252  0.00044953
   0.00006791  0.00013706  0.50047968
   0.50002971  0.00007360  0.50050762
   0.00000963  0.50021655  0.50040657
   0.50007103  0.50008776  0.50036420
Direct configuration=    14
   0.12502082  0.12512886  0.12547882
   0.62502175  0.12508644  0.12550246
   0.12501837  0.62516385  0.12541166
   0.62504127  0.62513554  0.12537384
   0.12503127  0.12520817  0.62544115
   0.62506474  0.12509171  0.62545418
   0.12506522  0.62513688  0.62542414
   0.62500687  0.62507881  0.62544592
   0.00002509  0.00016493  0.00043976
   0.50002124  0.00013748  0.00045441
   0.00003952  0.50012903  0.00042498
   0.50001792  0.50008682  0.00044604
   0.00006373  0.00013603  0.50047928
   0.50003066  0.00007696  0.50050199
   0.00000791  0.50020823  0.50041121
   0.50006740  0.50009161  0.50037404
Direct configuration=    15
   0.12502480  0.12512415  0.12547554
   0.62502265  0.12509524  0.12549765
   0.12502502  0.62515319  0.12542254
   0.62503138  0.62513720  0.12539237
   0.12503858  0.12519416  0.62543203
   0.62505402  0.12510355  0.62544507
   0.12506717  0.62513303  0.62542185
   0.62501247  0.62509174  0.62544332
   0.00002171  0.00015605  0.00043546
   0.50002879  0.00013697  0.00044800
   0.00003992  0.50013222  0.00042770
   0.50002447  0.50009527  0.00043918
   0.00005551  0.00013399  0.50047850
   0.50003252  0.00008357  0.50049092
   0.00000451  0.50019186  0.50042036
   0.50006025  0.50009917  0.50039340
Direct configuration=    16
   0.12502588  0.12512459  0.12547079
   0.62502448  0.12510008  0.12548962
   0.12502619  0.62515014  0.12542506
   0.62503158  0.62513595  0.12539947
   0.12503765  0.12518526  0.62543329
   0.62505110  0.12510682  0.62544480
   0.12506225  0.62513210  0.62542481
   0.62501521  0.62509660  0.62544332
   0.00002342  0.00015221  0.00043637
   0.50002961  0.00013609  0.00044671
   0.00003914  0.50013178  0.00042936
   0.50002606  0.50009971  0.00043957
   0.00005255  0.00013335  0.50047347
   0.50003286  0.00009002  0.50048416
   0.00000893  0.50018316  0.50042350
   0.50005687  0.50010352  0.50039961
Direct configuration=    17
   0.12502910  0.12512590  0.12545654
   0.62502997  0.12511458  0.12546553
   0.12502969  0.62514099  0.12543263
   0.62503216  0.62513222  0.12542078
   0.12503484  0.12515857  0.62543705
   0.62504234  0.12511661  0.62544398
   0.12504748  0.62512932  0.62543368
   0.62502344  0.62511118  0.62544332
   0.00002853  0.00014068  0.00043912
   0.50003208  0.00013344  0.00044281
   0.00003680  0.50013047  0.00043434
   0.50003081  0.50011301  0.00044074
   0.00004370  0.00013143  0.50045837
   0.50003390  0.00010934  0.50046387
   0.00002219  0.50015708  0.50043289
   0.50004675  0.50011656  0.50041824
Direct configuration=    18
   0.12503553  0.12512854  0.12542803
   0.62504095  0.12514360  0.12541734
   0.12503671  0.62512270  0.12544777
   0.62503332  0.62512474  0.12546339
   0.12502923  0.12510517  0.62544459
   0.62502480  0.12513618  0.62544235
   0.12501796  0.62512375  0.62545144
   0.62503990  0.62514035  0.62544331
   0.00003877  0.00011761  0.00044461
   0.50003702  0.00012813  0.00043503
   0.00003210  0.50012784  0.00044430
   0.50004033  0.50013963  0.00044309
   0.00002598  0.00012758  0.50042818
   0.50003597  0.00014799  0.50042328
   0.00004871  0.50010491  0.50045168
   0.50002650  0.50014264  0.50045551
Direct configuration=    19
   0.12503191  0.12512705  0.12544408
   0.62503477  0.12512726  0.12544447
   0.12503276  0.62513300  0.12543925
   0.62503267  0.62512895  0.12543940
   0.12503239  0.12513524  0.62544035
   0.62503468  0.12512516  0.62544327
   0.12503458  0.62512688  0.62544144
   0.62503063  0.62512393  0.62544332
   0.00003301  0.00013060  0.00044152
   0.50003424  0.00013112  0.00043941
   0.00003474  0.50012932  0.00043869
   0.50003497  0.50012465  0.00044177
   0.00003596  0.00012974  0.50044518
   0.50003480  0.00012623  0.50044613
   0.00003378  0.50013428  0.50044110
   0.50003790  0.50012795  0.50043453
Direct configuration=    20
   0.12503227  0.12512720  0.12544245
   0.62503540  0.12512892  0.12544173
   0.12503316  0.62513196  0.12544011
   0.62503273  0.62512853  0.12544183
   0.12503207  0.12513219  0.62544077
   0.62503368  0.12512628  0.62544318
   0.12503290  0.62512657  0.62544245
   0.62503157  0.62512559  0.62544332
   0.00003359  0.00012929  0.00044183
   0.50003452  0.00013081  0.00043897
   0.00003448  0.50012917  0.00043926
   0.50003551  0.50012616  0.00044190
   0.00003495  0.00012952  0.50044346
   0.50003492  0.00012843  0.50044382
   0.00003529  0.50013131  0.50044217
   0.50003675  0.50012944  0.50043665
Direct configuration=    21
   0.12503464  0.12512920  0.12543944
   0.62503501  0.12513003  0.12543854
   0.12503531  0.62512645  0.12544267
   0.62503531  0.62512996  0.12544196
   0.12503444  0.12512546  0.62544234
   0.62503391  0.12513184  0.62544006
   0.12503357  0.62512945  0.62544240
   0.62503636  0.62513115  0.62544130
   0.00003491  0.00012775  0.00044040
   0.50003324  0.00012844  0.00044235
   0.00003285  0.50012756  0.00044396
   0.50003376  0.50013117  0.00044265
   0.00003207  0.00012713  0.50043958
   0.50003332  0.00013079  0.50043856
   0.00003412  0.50012575  0.50044213
   0.50003095  0.50012923  0.50044555
Direct configuration=    22
   0.12503365  0.12512837  0.12544069
   0.62503517  0.12512957  0.12543987
   0.12503442  0.62512874  0.12544161
   0.62503424  0.62512936  0.12544190
   0.12503346  0.12512826  0.62544169
   0.62503381  0.12512952  0.62544136
   0.12503329  0.62512825  0.62544242
   0.62503437  0.62512884  0.62544214
   0.00003436  0.00012839  0.00044099
   0.50003377  0.00012943  0.00044094
   0.00003353  0.50012823  0.00044201
   0.50003449  0.50012909  0.00044234
   0.00003327  0.00012812  0.50044119
   0.50003398  0.00012981  0.50044075
   0.00003461  0.50012806  0.50044215
   0.50003336  0.50012932  0.50044185
Direct configuration=    23
   0.12503367  0.12512839  0.12544067
   0.62503517  0.12512958  0.12543984
   0.12503443  0.62512869  0.12544163
   0.62503426  0.62512938  0.12544191
   0.12503348  0.12512820  0.62544170
   0.62503381  0.12512957  0.62544133
   0.12503330  0.62512828  0.62544242
   0.62503441  0.62512888  0.62544212
   0.00003437  0.00012838  0.00044098
   0.50003376  0.00012941  0.00044097
   0.00003351  0.50012822  0.00044205
   0.50003448  0.50012913  0.00044235
   0.00003324  0.00012810  0.50044116
   0.50003397  0.00012983  0.50044070
   0.00003460  0.50012801  0.50044215
   0.50003331  0.50012931  0.50044192
Direct configuration=    24
   0.12503384  0.12512840  0.12544127
   0.62503426  0.12512922  0.12544087
   0.12503428  0.62512810  0.12544191
   0.62503381  0.62512949  0.12544214
   0.12503402  0.12512809  0.62544087
   0.62503348  0.12512945  0.62544115
   0.12503357  0.62512837  0.62544224
   0.62503406  0.62512931  0.62544180
   0.00003441  0.00012816  0.00044092
   0.50003389  0.00012945  0.00044114
   0.00003405  0.50012839  0.00044218
   0.50003442  0.50012937  0.00044173
   0.00003373  0.00012847  0.50044107
   0.50003415  0.00012934  0.50044072
   0.00003416  0.50012820  0.50044178
   0.50003365  0.50012955  0.50044210
Direct configuration=    25
   0.12503382  0.12512840  0.12544119
   0.62503438  0.12512927  0.12544073
   0.12503430  0.62512818  0.12544187
   0.62503387  0.62512947  0.12544211
   0.12503395  0.12512810  0.62544098
   0.62503353  0.12512946  0.62544117
   0.12503354  0.62512836  0.62544227
   0.62503410  0.62512925  0.62544184
   0.00003440  0.00012819  0.00044093
   0.50003387  0.00012944  0.00044112
   0.00003398  0.50012837  0.00044216
   0.50003443  0.50012934  0.00044182
   0.00003367  0.00012842  0.50044108
   0.50003412  0.00012941  0.50044072
   0.00003422  0.50012818  0.50044183
   0.50003360  0.50012952  0.50044208
Direct configuration=    26
   0.12503383  0.12512840  0.12544120
   0.62503435  0.12512926  0.12544076
   0.12503429  0.62512816  0.12544188
   0.62503385  0.62512947  0.12544212
   0.12503396  0.12512810  0.62544096
   0.62503352  0.12512946  0.62544117
   0.12503355  0.62512836  0.62544226
   0.62503409  0.62512927  0.62544183
   0.00003441  0.00012819  0.00044093
   0.50003388  0.00012945  0.00044113
   0.00003400  0.50012837  0.00044216
   0.50003443  0.50012935  0.00044180
   0.00003368  0.00012843  0.50044108
   0.50003413  0.00012939  0.50044072
   0.00003420  0.50012818  0.50044182
   0.50003361  0.50012953  0.50044208
Direct configuration=    27
   0.12503382  0.12512840  0.12544120
   0.62503436  0.12512926  0.12544075
   0.12503430  0.62512817  0.12544188
   0.62503386  0.62512947  0.12544211
   0.12503396  0.12512810  0.62544097
   0.62503352  0.12512946  0.62544117
   0.12503354  0.62512836  0.62544226
   0.62503410  0.62512926  0.62544184
   0.00003441  0.00012819  0.00044093
   0.50003388  0.00012944  0.00044112
   0.00003399  0.50012837  0.00044216
   0.50003443  0.50012934  0.00044181
   0.00003368  0.00012842  0.50044108
   0.50003413  0.00012940  0.50044072
   0.00003421  0.50012818  0.50044183
   0.50003361  0.50012952  0.50044208
Direct configuration=    28
   0.12503394  0.12512844  0.12544121
   0.62503430  0.12512927  0.12544087
   0.12503440  0.62512821  0.12544186
   0.62503393  0.62512942  0.12544208
   0.12503414  0.12512821  0.62544088
   0.62503363  0.12512945  0.62544111
   0.12503368  0.62512845  0.62544209
   0.62503412  0.62512934  0.62544172
   0.00003430  0.00012819  0.00044097
   0.50003385  0.00012941  0.00044117
   0.00003388  0.50012842  0.00044216
   0.50003431  0.50012927  0.00044175
   0.00003358  0.00012842  0.50044122
   0.50003403  0.00012923  0.50044085
   0.00003406  0.50012819  0.50044186
   0.50003362  0.50012945  0.50044211
Direct configuration=    29
   0.12503389  0.12512842  0.12544121
   0.62503433  0.12512927  0.12544082
   0.12503435  0.62512819  0.12544187
   0.62503390  0.62512944  0.12544209
   0.12503406  0.12512817  0.62544092
   0.62503358  0.12512946  0.62544113
   0.12503362  0.62512841  0.62544216
   0.62503411  0.62512931  0.62544177
   0.00003435  0.00012819  0.00044095
   0.50003386  0.00012942  0.00044115
   0.00003393  0.50012840  0.00044216
   0.50003436  0.50012930  0.00044177
   0.00003362  0.00012842  0.50044116
   0.50003407  0.00012930  0.50044079
   0.00003412  0.50012819  0.50044184
   0.50003361  0.50012948  0.50044210
Direct configuration=    30
   0.12503391  0.12512843  0.12544121
   0.62503432  0.12512927  0.12544084
   0.12503437  0.62512820  0.12544186
   0.62503391  0.62512943  0.12544209
   0.12503410  0.12512819  0.62544090
   0.62503360  0.12512945  0.62544112
   0.12503364  0.62512843  0.62544213
   0.62503411  0.62512932  0.62544175
   0.00003433  0.00012819  0.00044096
   0.50003386  0.00012942  0.00044116
   0.00003391  0.50012841  0.00044216
   0.50003434  0.50012929  0.00044176
   0.00003361  0.00012842  0.50044118
   0.50003406  0.00012927  0.50044082
   0.00003410  0.50012819  0.50044185
   0.50003362  0.50012947  0.50044210
Direct configuration=    31
   0.12503391  0.12512843  0.12544121
   0.62503432  0.12512927  0.12544084
   0.12503437  0.62512820  0.12544186
   0.62503391  0.62512944  0.12544209
   0.12503409  0.12512818  0.62544091
   0.62503360  0.12512945  0.62544112
   0.12503364  0.62512842  0.62544214
   0.62503411  0.62512932  0.62544175
   0.00003433  0.00012819  0.00044096
   0.50003386  0.00012942  0.00044115
   0.00003391  0.50012840  0.00044216
   0.50003434  0.50012929  0.00044177
   0.00003361  0.00012842  0.50044118
   0.50003406  0.00012928  0.50044081
   0.00003410  0.50012819  0.50044185
   0.50003362  0.50012947  0.50044210
Direct configuration=    32
   0.12503391  0.12512843  0.12544121
   0.62503432  0.12512927  0.12544084
   0.12503437  0.62512820  0.12544186
   0.62503391  0.62512944  0.12544209
   0.12503409  0.12512818  0.62544091
   0.62503360  0.12512945  0.62544112
   0.12503364  0.62512843  0.62544214
   0.62503411  0.62512932  0.62544175
   0.00003433  0.00012819  0.00044096
   0.50003386  0.00012942  0.00044116
   0.00003391  0.50012840  0.00044216
   0.50003434  0.50012929  0.00044176
   0.00003361  0.00012842  0.50044118
   0.50003406  0.00012928  0.50044081
   0.00003410  0.50012819  0.50044185
   0.50003362  0.50012947  0.50044210
Direct configuration=    33
   0.12503391  0.12512843  0.12544121
   0.62503432  0.12512927  0.12544084
   0.12503437  0.62512820  0.12544186
   0.62503391  0.62512944  0.12544209
   0.12503409  0.12512819  0.62544091
   0.62503360  0.12512945  0.62544112
   0.12503364  0.62512843  0.62544214
   0.62503411  0.62512932  0.62544175
   0.00003433  0.00012819  0.00044096
   0.50003386  0.00012942  0.00044116
   0.00003391  0.50012840  0.00044216
   0.50003434  0.50012929  0.00044176
   0.00003361  0.00012842  0.50044118
   0.50003406  0.00012928  0.50044082
   0.00003410  0.50012819  0.50044185
   0.50003362  0.50012947  0.50044210
Direct configuration=    34
   0.12503391  0.12512843  0.12544121
   0.62503432  0.12512927  0.12544084
   0.12503437  0.62512820  0.12544186
   0.62503391  0.62512944  0.12544209
   0.12503410  0.12512819  0.62544090
   0.62503360  0.12512945  0.62544112
   0.12503364  0.62512843  0.62544214
   0.62503411  0.62512932  0.62544175
   0.00003433  0.00012819  0.00044096
   0.50003386  0.00012942  0.00044116
   0.00003391  0.50012841  0.00044216
   0.50003434  0.50012929  0.00044176
   0.00003361  0.00012842  0.50044118
   0.50003406  0.00012928  0.50044082
   0.00003410  0.50012819  0.50044185
   0.50003362  0.50012947  0.50044210
Direct configuration=    35
   0.12503391  0.12512843  0.12544121
   0.62503432  0.12512927  0.12544084
   0.12503437  0.62512820  0.12544186
   0.62503391  0.62512944  0.12544209
   0.12503410  0.12512819  0.62544090
   0.62503360  0.12512945  0.62544112
   0.12503364  0.62512843  0.62544214
   0.62503411  0.62512932  0.62544175
   0.00003433  0.00012819  0.00044096
   0.50003386  0.00012942  0.00044116
   0.00003391  0.50012841  0.00044216
   0.50003434  0.50012929  0.00044176
   0.00003361  0.00012842  0.50044118
   0.50003406  0.00012927  0.50044082
   0.00003410  0.50012819  0.50044185
   0.50003362  0.50012947  0.50044210
Direct configuration=    36
   0.12503391  0.12512843  0.12544121
   0.62503432  0.12512927  0.12544084
   0.12503437  0.62512820  0.12544186
   0.62503391  0.62512943  0.12544209
   0.12503410  0.12512819  0.62544090
   0.62503360  0.12512945  0.62544112
   0.12503364  0.62512843  0.62544213
   0.62503411  0.62512932  0.62544175
   0.00003433  0.00012819  0.00044096
   0.50003386  0.00012942  0.00044116
   0.00003391  0.50012841  0.00044216
   0.50003434  0.50012929  0.00044176
   0.00003361  0.00012842  0.50044118
   0.50003406  0.00012927  0.50044082
   0.00003410  0.50012819  0.50044185
   0.50003362  0.50012947  0.50044210
Direct configuration=    37
   0.12503391  0.12512843  0.12544121
   0.62503432  0.12512927  0.12544084
   0.12503437  0.62512820  0.12544186
   0.62503391  0.62512943  0.12544209
   0.12503410  0.12512819  0.62544090
   0.62503360  0.12512945  0.62544112
   0.12503364  0.62512843  0.62544213
   0.62503411  0.62512932  0.62544175
   0.00003433  0.00012819  0.00044096
   0.50003386  0.00012942  0.00044116
   0.00003391  0.50012841  0.00044216
   0.50003434  0.50012929  0.00044176
   0.00003361  0.00012842  0.50044118
   0.50003406  0.00012927  0.50044082
   0.00003410  0.50012819  0.50044185
   0.50003362  0.50012947  0.50044210
Direct configuration=    38
   0.12503391  0.12512843  0.12544121
   0.62503432  0.12512927  0.12544084
   0.12503437  0.62512820  0.12544186
   0.62503391  0.62512943  0.12544209
   0.12503410  0.12512819  0.62544090
   0.62503360  0.12512945  0.62544112
   0.12503364  0.62512843  0.62544213
   0.62503411  0.62512932  0.62544175
   0.00003433  0.00012819  0.00044096
   0.50003386  0.00012942  0.00044116
   0.00003391  0.50012841  0.00044216
   0.50003434  0.50012929  0.00044176
   0.00003361  0.00012842  0.50044118
   0.50003406  0.00012927  0.50044082
   0.00003410  0.50012819  0.50044185
   0.50003362  0.50012947  0.50044210
Direct configuration=    39
   0.12503391  0.12512843  0.12544121
   0.62503432  0.12512927  0.12544084
   0.12503437  0.62512820  0.12544186
   0.62503391  0.62512943  0.12544209
   0.12503410  0.12512819  0.62544090
   0.62503360  0.12512945  0.62544112
   0.12503364  0.62512843  0.62544213
   0.62503411  0.62512932  0.62544175
   0.00003433  0.00012819  0.00044096
   0.50003386  0.00012942  0.00044116
   0.00003391  0.50012841  0.00044216
   0.50003434  0.50012929  0.00044176
   0.00003361  0.00012842  0.50044118
   0.50003406  0.00012927  0.50044082
   0.00003410  0.50012819  0.50044185
   0.50003362  0.50012947  0.50044210
Direct configuration=    40
   0.12503391  0.12512843  0.12544121
   0.62503432  0.12512927  0.12544084
   0.12503437  0.62512820  0.12544186
   0.62503391  0.62512943  0.12544209
   0.12503410  0.12512819  0.62544090
   0.62503360  0.12512945  0.62544112
   0.12503364  0.62512843  0.62544213
   0.62503411  0.62512932  0.62544175
   0.00003433  0.00012819  0.00044096
   0.50003386  0.00012942  0.00044116
   0.00003391  0.50012841  0.00044216
   0.50003434  0.50012929  0.00044176
   0.00003361  0.00012842  0.50044118
   0.50003406  0.00012927  0.50044082
   0.00003410  0.50012819  0.50044185
   0.50003362  0.50012947  0.50044210
Direct configuration=    41
   0.12503391  0.12512843  0.12544121
   0.62503432  0.12512927  0.12544084
   0.12503437  0.62512820  0.12544186
   0.62503391  0.62512943  0.12544209
   0.12503410  0.12512819  0.62544090
   0.62503360  0.12512945  0.62544112
   0.12503364  0.62512843  0.62544213
   0.62503411  0.62512932  0.62544175
   0.00003433  0.00012819  0.00044096
   0.50003386  0.00012942  0.00044116
   0.00003391  0.50012841  0.00044216
   0.50003434  0.50012929  0.00044176
   0.00003361  0.00012842  0.50044118
   0.50003406  0.00012927  0.50044082
   0.00003410  0.50012819  0.50044185
   0.50003362  0.50012947  0.50044210
Direct configuration=    42
   0.12503391  0.12512843  0.12544121
   0.62503432  0.12512927  0.12544084
   0.12503437  0.62512820  0.12544186
   0.62503391  0.62512943  0.12544209
   0.12503410  0.12512819  0.62544090
   0.62503360  0.12512945  0.62544112
   0.12503364  0.62512843  0.62544213
   0.62503411  0.62512932  0.62544175
   0.00003433  0.00012819  0.00044096
   0.50003386  0.00012942  0.00044116
   0.00003391  0.50012841  0.00044216
   0.50003434  0.50012929  0.00044176
   0.00003361  0.00012842  0.50044118
   0.50003406  0.00012927  0.50044082
   0.00003410  0.50012819  0.50044185
   0.50003362  0.50012947  0.50044210
Direct configuration=    43
   0.12503391  0.12512843  0.12544121
   0.62503432  0.12512927  0.12544084
   0.12503437  0.62512820  0.12544186
   0.62503391  0.62512943  0.12544209
   0.12503410  0.12512819  0.62544090
   0.62503360  0.12512945  0.62544112
   0.12503364  0.62512843  0.62544213
   0.62503411  0.62512932  0.62544175
   0.00003433  0.00012819  0.00044096
   0.50003386  0.00012942  0.00044116
   0.00003391  0.50012841  0.00044216
   0.50003434  0.50012929  0.00044176
   0.00003361  0.00012842  0.50044118
   0.50003406  0.00012927  0.50044082
   0.00003410  0.50012819  0.50044185
   0.50003362  0.50012947  0.50044210
Direct configuration=    44
   0.12503391  0.12512843  0.12544121
   0.62503432  0.12512927  0.12544084
   0.12503437  0.62512820  0.12544186
   0.62503391  0.62512943  0.12544209
   0.12503410  0.12512819  0.62544090
   0.62503360  0.12512945  0.62544112
   0.12503364  0.62512843  0.62544213
   0.62503411  0.62512932  0.62544175
   0.00003433  0.00012819  0.00044096
   0.50003386  0.00012942  0.00044116
   0.00003391  0.50012841  0.00044216
   0.50003434  0.50012929  0.00044176
   0.00003361  0.00012842  0.50044118
   0.50003406  0.00012927  0.50044082
   0.00003410  0.50012819  0.50044185
   0.50003362  0.50012947  0.50044210
Direct configuration=    45
   0.12503391  0.12512843  0.12544121
   0.62503432  0.12512927  0.12544084
   0.12503437  0.62512820  0.12544186
   0.62503391  0.62512943  0.12544209
   0.12503410  0.12512819  0.62544090
   0.62503360  0.12512945  0.62544112
   0.12503364  0.62512843  0.62544213
   0.62503411  0.62512932  0.62544175
   0.00003433  0.00012819  0.00044096
   0.50003386  0.00012942  0.00044116
   0.00003391  0.50012841  0.00044216
   0.50003434  0.50012929  0.00044176
   0.00003361  0.00012842  0.50044118
   0.50003406  0.00012927  0.50044082
   0.00003410  0.50012819  0.50044185
   0.50003362  0.50012947  0.50044210
