       N       E                     dE             d eps       ncg     rms          rms(c)
DAV:   1     0.187965906403E+04    0.18797E+04   -0.73942E+04 21504   0.184E+03
DAV:   2     0.211607810411E+03   -0.16681E+04   -0.16237E+04 21552   0.481E+02
DAV:   3    -0.463584592787E+02   -0.25797E+03   -0.24442E+03 26144   0.214E+02
DAV:   4    -0.660534653961E+02   -0.19695E+02   -0.19336E+02 26064   0.572E+01
DAV:   5    -0.669687330368E+02   -0.91527E+00   -0.91227E+00 26752   0.116E+01    0.985E+00
RMM:   6    -0.661044231035E+02    0.86431E+00   -0.16204E+00 21809   0.373E+00    0.572E+00
RMM:   7    -0.661099129382E+02   -0.54898E-02   -0.18942E+00 22828   0.298E+00    0.151E+00
RMM:   8    -0.660852915426E+02    0.24621E-01   -0.39281E-01 22227   0.380E+00    0.463E-01
RMM:   9    -0.660722276865E+02    0.13064E-01   -0.88926E-02 24712   0.174E+00    0.335E-01
RMM:  10    -0.660749869796E+02   -0.27593E-02   -0.28519E-02 25341   0.682E-01    0.226E-01
RMM:  11    -0.660749092838E+02    0.77696E-04   -0.52671E-03 30421   0.295E-01    0.229E-01
RMM:  12    -0.660791510193E+02   -0.42417E-02   -0.58074E-03 21788   0.234E-01    0.438E-01
RMM:  13    -0.660735570012E+02    0.55940E-02   -0.19749E-02 27648   0.564E-01    0.426E-02
RMM:  14    -0.660736617686E+02   -0.10477E-03   -0.11758E-03 21666   0.105E-01    0.551E-02
RMM:  15    -0.660737379642E+02   -0.76196E-04   -0.40767E-04 25626   0.560E-02    0.986E-02
RMM:  16    -0.660736879916E+02    0.49973E-04   -0.62181E-05 24516   0.348E-02    0.765E-02
RMM:  17    -0.660736362017E+02    0.51790E-04   -0.10782E-04 21967   0.303E-02    0.380E-02
RMM:  18    -0.660736392783E+02   -0.30766E-05   -0.14759E-04 24669   0.234E-02    0.510E-02
RMM:  19    -0.660736329238E+02    0.63545E-05   -0.17623E-05 21654   0.247E-02    0.304E-02
RMM:  20    -0.660736326587E+02    0.26513E-06   -0.11317E-05 22063   0.125E-02    0.905E-03
RMM:  21    -0.660736331020E+02   -0.44335E-06   -0.25052E-06 30912   0.648E-03    0.531E-03
RMM:  22    -0.660736327422E+02    0.35977E-06   -0.42423E-07 26839   0.236E-03    0.278E-03
RMM:  23    -0.660736325138E+02    0.22845E-06   -0.14133E-07 23786   0.152E-03    0.176E-03
RMM:  24    -0.660736324535E+02    0.60272E-07   -0.51742E-08 16835   0.988E-04    0.110E-03
RMM:  25    -0.660736324495E+02    0.40345E-08   -0.12516E-08 12609   0.639E-04
   1 F= -.66073632E+02 E0= -.66073632E+02  d E =-.660736E+02
       N       E                     dE             d eps       ncg     rms          rms(c)
DAV:   1    -0.660739343419E+02   -0.30189E-03   -0.17992E-01 24344   0.111E+00    0.442E-02
RMM:   2    -0.660741323940E+02   -0.19805E-03   -0.22435E-03 24406   0.234E-01    0.225E-02
RMM:   3    -0.660742203129E+02   -0.87919E-04   -0.92827E-04 28680   0.144E-01    0.128E-02
RMM:   4    -0.660742250791E+02   -0.47662E-05   -0.67664E-05 26952   0.330E-02    0.111E-02
RMM:   5    -0.660742255638E+02   -0.48464E-06   -0.13914E-05 27189   0.147E-02    0.561E-03
RMM:   6    -0.660742256195E+02   -0.55728E-07   -0.15963E-06 25264   0.512E-03    0.128E-03
RMM:   7    -0.660742256985E+02   -0.78964E-07   -0.53397E-07 27305   0.291E-03    0.996E-04
RMM:   8    -0.660742257283E+02   -0.29861E-07   -0.10606E-07 22292   0.154E-03    0.715E-04
RMM:   9    -0.660742257026E+02    0.25748E-07   -0.19799E-08 12704   0.805E-04    0.535E-04
RMM:  10    -0.660742257107E+02   -0.81109E-08   -0.12019E-08 12569   0.645E-04
   2 F= -.66074226E+02 E0= -.66074226E+02  d E =-.593261E-03
       N       E                     dE             d eps       ncg     rms          rms(c)
DAV:   1    -0.660721708073E+02    0.20549E-02   -0.15443E+00 24304   0.325E+00    0.143E-01
RMM:   2    -0.660739150837E+02   -0.17443E-02   -0.20546E-02 24369   0.857E-01    0.767E-02
RMM:   3    -0.660748998272E+02   -0.98474E-03   -0.10665E-02 28576   0.461E-01    0.417E-02
RMM:   4    -0.660749785456E+02   -0.78718E-04   -0.96623E-04 31496   0.124E-01    0.342E-02
RMM:   5    -0.660749828160E+02   -0.42704E-05   -0.10930E-04 27718   0.451E-02    0.166E-02
RMM:   6    -0.660749834673E+02   -0.65132E-06   -0.17519E-05 22557   0.223E-02    0.430E-03
RMM:   7    -0.660749843200E+02   -0.85269E-06   -0.99388E-06 29327   0.129E-02    0.363E-03
RMM:   8    -0.660749844221E+02   -0.10215E-06   -0.15357E-06 28503   0.497E-03    0.310E-03
RMM:   9    -0.660749844501E+02   -0.27954E-07   -0.23773E-07 27159   0.202E-03    0.253E-03
RMM:  10    -0.660749843637E+02    0.86378E-07   -0.21187E-07 22273   0.261E-03    0.961E-04
RMM:  11    -0.660749844013E+02   -0.37582E-07   -0.83801E-08 21710   0.120E-03    0.421E-04
RMM:  12    -0.660749843962E+02    0.50677E-08   -0.14009E-08 12602   0.614E-04
   3 F= -.66074984E+02 E0= -.66074984E+02  d E =-.135195E-02
       N       E                     dE             d eps       ncg     rms          rms(c)
DAV:   1    -0.660750011390E+02   -0.16738E-04   -0.38177E-02 24344   0.513E-01    0.182E-02
RMM:   2    -0.660750471273E+02   -0.45988E-04   -0.48511E-04 24330   0.104E-01    0.651E-03
RMM:   3    -0.660750624452E+02   -0.15318E-04   -0.15654E-04 28721   0.591E-02    0.412E-03
RMM:   4    -0.660750632388E+02   -0.79356E-06   -0.11500E-05 26902   0.132E-02    0.393E-03
RMM:   5    -0.660750633154E+02   -0.76596E-07   -0.20671E-06 29593   0.589E-03    0.299E-03
RMM:   6    -0.660750632524E+02    0.62983E-07   -0.31329E-07 25512   0.210E-03    0.517E-04
RMM:   7    -0.660750632528E+02   -0.42928E-09   -0.92297E-08 20303   0.120E-03
   4 F= -.66075063E+02 E0= -.66075063E+02  d E =-.788566E-04
       N       E                     dE             d eps       ncg     rms          rms(c)
DAV:   1    -0.660749014530E+02    0.16180E-03   -0.15360E-01 24040   0.103E+00    0.371E-02
RMM:   2    -0.660750781005E+02   -0.17665E-03   -0.18761E-03 24326   0.215E-01    0.151E-02
RMM:   3    -0.660751504882E+02   -0.72388E-04   -0.75606E-04 28773   0.131E-01    0.833E-03
RMM:   4    -0.660751546742E+02   -0.41860E-05   -0.54086E-05 26889   0.291E-02    0.796E-03
RMM:   5    -0.660751551816E+02   -0.50739E-06   -0.93688E-06 29575   0.124E-02    0.596E-03
RMM:   6    -0.660751550718E+02    0.10978E-06   -0.11760E-06 21904   0.417E-03    0.101E-03
RMM:   7    -0.660751551421E+02   -0.70317E-07   -0.55872E-07 30935   0.299E-03    0.844E-04
RMM:   8    -0.660751551715E+02   -0.29419E-07   -0.10400E-07 21812   0.136E-03    0.456E-04
RMM:   9    -0.660751551588E+02    0.12784E-07   -0.26937E-08 14314   0.811E-04    0.272E-04
RMM:  10    -0.660751551641E+02   -0.53551E-08   -0.11554E-08 12584   0.652E-04
   5 F= -.66075155E+02 E0= -.66075155E+02  d E =-.170768E-03
       N       E                     dE             d eps       ncg     rms          rms(c)
DAV:   1    -0.660739983537E+02    0.11568E-02   -0.61371E-01 24064   0.206E+00    0.781E-02
RMM:   2    -0.660746839075E+02   -0.68555E-03   -0.74628E-03 24326   0.482E-01    0.358E-02
RMM:   3    -0.660750412903E+02   -0.35738E-03   -0.37969E-03 28739   0.283E-01    0.168E-02
RMM:   4    -0.660750664185E+02   -0.25128E-04   -0.29277E-04 26883   0.726E-02    0.149E-02
RMM:   5    -0.660750737493E+02   -0.73308E-05   -0.88718E-05 29436   0.367E-02    0.115E-02
RMM:   6    -0.660750740622E+02   -0.31292E-06   -0.46399E-06 25508   0.897E-03    0.481E-03
RMM:   7    -0.660750745039E+02   -0.44167E-06   -0.22473E-06 27886   0.589E-03    0.141E-03
RMM:   8    -0.660750745565E+02   -0.52660E-07   -0.36600E-07 26920   0.250E-03    0.855E-04
RMM:   9    -0.660750745988E+02   -0.42206E-07   -0.10037E-07 22981   0.122E-03    0.554E-04
RMM:  10    -0.660750745898E+02    0.89458E-08   -0.22065E-08 12763   0.102E-03
   6 F= -.66075075E+02 E0= -.66075075E+02  d E =-.901936E-04
       N       E                     dE             d eps       ncg     rms          rms(c)
DAV:   1    -0.660746018126E+02    0.47279E-03   -0.33456E-01 23688   0.152E+00    0.560E-02
RMM:   2    -0.660749731621E+02   -0.37135E-03   -0.39932E-03 24330   0.334E-01    0.247E-02
RMM:   3    -0.660751528948E+02   -0.17973E-03   -0.18985E-03 28757   0.205E-01    0.119E-02
RMM:   4    -0.660751650947E+02   -0.12200E-04   -0.14423E-04 26905   0.494E-02    0.112E-02
RMM:   5    -0.660751676097E+02   -0.25150E-05   -0.33896E-05 29408   0.225E-02    0.822E-03
RMM:   6    -0.660751677562E+02   -0.14649E-06   -0.28590E-06 23234   0.710E-03    0.252E-03
RMM:   7    -0.660751680365E+02   -0.28023E-06   -0.16321E-06 29546   0.556E-03    0.108E-03
RMM:   8    -0.660751680611E+02   -0.24593E-07   -0.22040E-07 24406   0.184E-03    0.677E-04
RMM:   9    -0.660751680827E+02   -0.21686E-07   -0.73660E-08 20147   0.994E-04    0.374E-04
RMM:  10    -0.660751680690E+02    0.13735E-07   -0.14458E-08 12592   0.762E-04    0.235E-04
RMM:  11    -0.660751680758E+02   -0.68067E-08   -0.66375E-09 12546   0.410E-04
   7 F= -.66075168E+02 E0= -.66075168E+02  d E =-.183680E-03
       N       E                     dE             d eps       ncg     rms          rms(c)
DAV:   1    -0.660751634271E+02    0.46420E-05   -0.13173E-02 24208   0.305E-01    0.111E-02
RMM:   2    -0.660751801497E+02   -0.16723E-04   -0.17560E-04 24309   0.620E-02    0.406E-03
RMM:   3    -0.660751851345E+02   -0.49848E-05   -0.50069E-05 28648   0.334E-02    0.238E-03
RMM:   4    -0.660751854826E+02   -0.34814E-06   -0.48135E-06 26604   0.827E-03    0.219E-03
RMM:   5    -0.660751855176E+02   -0.35052E-07   -0.84717E-07 30063   0.375E-03    0.167E-03
RMM:   6    -0.660751855073E+02    0.10396E-07   -0.10646E-07 21725   0.137E-03    0.400E-04
RMM:   7    -0.660751855066E+02    0.61482E-09   -0.37434E-08 15391   0.808E-04
   8 F= -.66075186E+02 E0= -.66075186E+02  d E =-.174308E-04
       N       E                     dE             d eps       ncg     rms          rms(c)
DAV:   1    -0.660751513074E+02    0.34200E-04   -0.28521E-02 24304   0.449E-01    0.163E-02
RMM:   2    -0.660751872873E+02   -0.35980E-04   -0.37793E-04 24304   0.918E-02    0.614E-03
RMM:   3    -0.660751985347E+02   -0.11247E-04   -0.11403E-04 28694   0.510E-02    0.364E-03
RMM:   4    -0.660751992906E+02   -0.75590E-06   -0.10360E-05 26623   0.121E-02    0.341E-03
RMM:   5    -0.660751993575E+02   -0.66806E-07   -0.17219E-06 30357   0.538E-03    0.260E-03
RMM:   6    -0.660751993119E+02    0.45568E-07   -0.21945E-07 21772   0.181E-03    0.544E-04
RMM:   7    -0.660751993168E+02   -0.49549E-08   -0.10132E-07 23009   0.123E-03    0.531E-04
RMM:   8    -0.660751993466E+02   -0.29791E-07   -0.43066E-08 16359   0.109E-03    0.576E-04
RMM:   9    -0.660751993341E+02    0.12555E-07   -0.75134E-09 12544   0.518E-04    0.257E-04
RMM:  10    -0.660751993333E+02    0.73123E-09   -0.40556E-09 12544   0.375E-04
   9 F= -.66075199E+02 E0= -.66075199E+02  d E =-.312575E-04
       N       E                     dE             d eps       ncg     rms          rms(c)
DAV:   1    -0.660751905640E+02    0.87701E-05   -0.61973E-03 24400   0.209E-01    0.761E-03
RMM:   2    -0.660751984277E+02   -0.78638E-05   -0.82647E-05 24301   0.425E-02    0.274E-03
RMM:   3    -0.660752007967E+02   -0.23689E-05   -0.23508E-05 28694   0.228E-02    0.164E-03
RMM:   4    -0.660752009492E+02   -0.15258E-06   -0.22577E-06 26566   0.567E-03    0.152E-03
RMM:   5    -0.660752009607E+02   -0.11461E-07   -0.37668E-07 26616   0.258E-03    0.116E-03
RMM:   6    -0.660752009732E+02   -0.12493E-07   -0.74846E-08 18763   0.169E-03    0.341E-04
RMM:   7    -0.660752009613E+02    0.11914E-07   -0.24642E-08 12671   0.734E-04    0.322E-04
RMM:   8    -0.660752009628E+02   -0.15189E-08   -0.88193E-09 12544   0.667E-04
  10 F= -.66075201E+02 E0= -.66075201E+02  d E =-.328870E-04
       N       E                     dE             d eps       ncg     rms          rms(c)
DAV:   1    -0.660751878799E+02    0.13081E-04   -0.14359E-02 24224   0.319E-01    0.114E-02
RMM:   2    -0.660752057110E+02   -0.17831E-04   -0.18656E-04 24216   0.644E-02    0.457E-03
RMM:   3    -0.660752113021E+02   -0.55911E-05   -0.55593E-05 28863   0.353E-02    0.255E-03
RMM:   4    -0.660752116503E+02   -0.34823E-06   -0.50354E-06 26375   0.849E-03    0.230E-03
RMM:   5    -0.660752116820E+02   -0.31669E-07   -0.90302E-07 29972   0.384E-03    0.170E-03
RMM:   6    -0.660752116686E+02    0.13410E-07   -0.11017E-07 21788   0.140E-03    0.412E-04
RMM:   7    -0.660752116674E+02    0.11332E-08   -0.41596E-08 15678   0.832E-04
  11 F= -.66075212E+02 E0= -.66075212E+02  d E =-.107046E-04
       N       E                     dE             d eps       ncg     rms          rms(c)
DAV:   1    -0.660751980069E+02    0.13662E-04   -0.11913E-02 24296   0.290E-01    0.102E-02
RMM:   2    -0.660752130275E+02   -0.15021E-04   -0.15651E-04 24209   0.585E-02    0.388E-03
RMM:   3    -0.660752174177E+02   -0.43902E-05   -0.43928E-05 28862   0.310E-02    0.229E-03
RMM:   4    -0.660752177364E+02   -0.31863E-06   -0.42720E-06 26264   0.788E-03    0.208E-03
RMM:   5    -0.660752177732E+02   -0.36845E-07   -0.82706E-07 30163   0.367E-03    0.159E-03
RMM:   6    -0.660752177626E+02    0.10621E-07   -0.91815E-08 21548   0.131E-03    0.392E-04
RMM:   7    -0.660752177644E+02   -0.17753E-08   -0.35773E-08 14963   0.782E-04
  12 F= -.66075218E+02 E0= -.66075218E+02  d E =-.168016E-04
       N       E                     dE             d eps       ncg     rms          rms(c)
DAV:   1    -0.660751403587E+02    0.77404E-04   -0.47625E-02 24256   0.580E-01    0.208E-02
RMM:   2    -0.660751987373E+02   -0.58379E-04   -0.61125E-04 24218   0.118E-01    0.868E-03
RMM:   3    -0.660752182036E+02   -0.19466E-04   -0.19754E-04 28866   0.672E-02    0.476E-03
RMM:   4    -0.660752194361E+02   -0.12325E-05   -0.16630E-05 26400   0.154E-02    0.430E-03
RMM:   5    -0.660752195488E+02   -0.11268E-06   -0.27601E-06 30431   0.684E-03    0.315E-03
RMM:   6    -0.660752194794E+02    0.69365E-07   -0.38835E-07 25651   0.233E-03    0.666E-04
RMM:   7    -0.660752194941E+02   -0.14692E-07   -0.11108E-07 21932   0.127E-03    0.629E-04
RMM:   8    -0.660752195617E+02   -0.67577E-07   -0.78437E-08 19577   0.130E-03    0.867E-04
RMM:   9    -0.660752195194E+02    0.42295E-07   -0.19256E-08 12962   0.879E-04    0.211E-04
RMM:  10    -0.660752195163E+02    0.31341E-08   -0.64401E-09 12544   0.430E-04
  13 F= -.66075220E+02 E0= -.66075220E+02  d E =-.185535E-04
       N       E                     dE             d eps       ncg     rms          rms(c)
DAV:   1    -0.660752072556E+02    0.12264E-04   -0.80136E-03 24120   0.238E-01    0.849E-03
RMM:   2    -0.660752172835E+02   -0.10028E-04   -0.10479E-04 24204   0.480E-02    0.339E-03
RMM:   3    -0.660752202648E+02   -0.29813E-05   -0.29611E-05 28818   0.255E-02    0.188E-03
RMM:   4    -0.660752204655E+02   -0.20070E-06   -0.28523E-06 26258   0.643E-03    0.164E-03
RMM:   5    -0.660752204829E+02   -0.17422E-07   -0.51110E-07 27224   0.298E-03    0.119E-03
RMM:   6    -0.660752204861E+02   -0.31559E-08   -0.93383E-08 20002   0.185E-03
  14 F= -.66075220E+02 E0= -.66075220E+02  d E =-.195233E-04
       N       E                     dE             d eps       ncg     rms          rms(c)
DAV:   1    -0.660752193841E+02    0.10988E-05   -0.64017E-04 24160   0.674E-02    0.228E-03
RMM:   2    -0.660752201779E+02   -0.79381E-06   -0.82727E-06 24160   0.136E-02    0.928E-04
RMM:   3    -0.660752204359E+02   -0.25795E-06   -0.24717E-06 28484   0.747E-03    0.599E-04
RMM:   4    -0.660752204485E+02   -0.12598E-07   -0.23604E-07 24673   0.184E-03    0.552E-04
RMM:   5    -0.660752204477E+02    0.77125E-09   -0.34309E-08 15338   0.839E-04
  15 F= -.66075220E+02 E0= -.66075220E+02  d E =-.194849E-04
       N       E                     dE             d eps       ncg     rms          rms(c)
DAV:   1    -0.660752202122E+02    0.23631E-06   -0.16403E-04 24200   0.341E-02    0.121E-03
RMM:   2    -0.660752204120E+02   -0.19987E-06   -0.20382E-06 24112   0.711E-03    0.479E-04
RMM:   3    -0.660752204816E+02   -0.69598E-07   -0.77098E-07 28654   0.413E-03    0.307E-04
RMM:   4    -0.660752204893E+02   -0.76270E-08   -0.60876E-08 19048   0.972E-04    0.282E-04
RMM:   5    -0.660752204889E+02    0.36380E-09   -0.90759E-09 12344   0.489E-04
  16 F= -.66075220E+02 E0= -.66075220E+02  d E =-.195261E-04
       N       E                     dE             d eps       ncg     rms          rms(c)
DAV:   1    -0.660752022394E+02    0.18250E-04   -0.14487E-02 24016   0.316E-01    0.990E-03
RMM:   2    -0.660752191494E+02   -0.16910E-04   -0.17629E-04 24560   0.631E-02    0.449E-03
RMM:   3    -0.660752243245E+02   -0.51750E-05   -0.51565E-05 28464   0.331E-02    0.249E-03
RMM:   4    -0.660752246620E+02   -0.33758E-06   -0.45831E-06 26596   0.829E-03    0.218E-03
RMM:   5    -0.660752247004E+02   -0.38348E-07   -0.93536E-07 30002   0.387E-03    0.152E-03
RMM:   6    -0.660752246960E+02    0.44038E-08   -0.99636E-08 22102   0.143E-03
  17 F= -.66075225E+02 E0= -.66075225E+02  d E =-.420708E-05
       N       E                     dE             d eps       ncg     rms          rms(c)
DAV:   1    -0.660752245902E+02    0.11016E-06   -0.15997E-04 25048   0.331E-02    0.134E-03
RMM:   2    -0.660752247741E+02   -0.18385E-06   -0.18714E-06 24573   0.693E-03    0.629E-04
RMM:   3    -0.660752248384E+02   -0.64307E-07   -0.76517E-07 28687   0.402E-03    0.267E-04
RMM:   4    -0.660752248463E+02   -0.79017E-08   -0.53630E-08 17469   0.970E-04    0.236E-04
RMM:   5    -0.660752248477E+02   -0.14334E-08   -0.11478E-08 12492   0.584E-04
  18 F= -.66075225E+02 E0= -.66075225E+02  d E =-.435881E-05
       N       E                     dE             d eps       ncg     rms          rms(c)
DAV:   1    -0.660752239677E+02    0.87861E-06   -0.63781E-04 24176   0.662E-02    0.210E-03
RMM:   2    -0.660752246971E+02   -0.72944E-06   -0.75264E-06 24577   0.135E-02    0.109E-03
RMM:   3    -0.660752249379E+02   -0.24082E-06   -0.26985E-06 28491   0.778E-03    0.574E-04
RMM:   4    -0.660752249595E+02   -0.21602E-07   -0.20920E-07 24298   0.176E-03    0.511E-04
RMM:   5    -0.660752249616E+02   -0.20627E-08   -0.26124E-08 13245   0.806E-04
  19 F= -.66075225E+02 E0= -.66075225E+02  d E =-.447269E-05
       N       E                     dE             d eps       ncg     rms          rms(c)
DAV:   1    -0.660752245033E+02    0.45624E-06   -0.24920E-04 24048   0.415E-02    0.137E-03
RMM:   2    -0.660752247778E+02   -0.27447E-06   -0.28643E-06 24465   0.965E-03    0.818E-04
RMM:   3    -0.660752249105E+02   -0.13270E-06   -0.14743E-06 28197   0.557E-03    0.423E-04
RMM:   4    -0.660752249186E+02   -0.81782E-08   -0.11268E-07 20451   0.145E-03    0.344E-04
RMM:   5    -0.660752249206E+02   -0.19190E-08   -0.29959E-08 14982   0.836E-04
  20 F= -.66075225E+02 E0= -.66075225E+02  d E =-.443166E-05
       N       E                     dE             d eps       ncg     rms          rms(c)
DAV:   1    -0.660752248017E+02    0.11698E-06   -0.96195E-05 24120   0.258E-02    0.868E-04
RMM:   2    -0.660752249095E+02   -0.10784E-06   -0.11387E-06 24374   0.559E-03    0.413E-04
RMM:   3    -0.660752249518E+02   -0.42288E-07   -0.44969E-07 26846   0.305E-03    0.245E-04
RMM:   4    -0.660752249552E+02   -0.34433E-08   -0.36780E-08 15835   0.827E-04    0.220E-04
RMM:   5    -0.660752249561E+02   -0.82400E-09   -0.90861E-09 11990   0.508E-04
  21 F= -.66075225E+02 E0= -.66075225E+02  d E =-.446715E-05
       N       E                     dE             d eps       ncg     rms          rms(c)
DAV:   1    -0.660752214919E+02    0.34633E-05   -0.30263E-03 24136   0.145E-01    0.522E-03
RMM:   2    -0.660752251952E+02   -0.37033E-05   -0.38796E-05 24435   0.292E-02    0.195E-03
RMM:   3    -0.660752262998E+02   -0.11046E-05   -0.10931E-05 28547   0.153E-02    0.112E-03
RMM:   4    -0.660752263692E+02   -0.69405E-07   -0.99226E-07 26536   0.386E-03    0.102E-03
RMM:   5    -0.660752263745E+02   -0.52733E-08   -0.18450E-07 21406   0.182E-03    0.725E-04
RMM:   6    -0.660752263752E+02   -0.70759E-09   -0.40326E-08 16477   0.138E-03
  22 F= -.66075226E+02 E0= -.66075226E+02  d E =-.141913E-05
       N       E                     dE             d eps       ncg     rms          rms(c)
DAV:   1    -0.660752263214E+02    0.53047E-07   -0.14877E-04 24856   0.321E-02    0.127E-03
RMM:   2    -0.660752264997E+02   -0.17827E-06   -0.19121E-06 24384   0.648E-03    0.514E-04
RMM:   3    -0.660752265600E+02   -0.60312E-07   -0.57503E-07 28910   0.353E-03    0.284E-04
RMM:   4    -0.660752265619E+02   -0.19008E-08   -0.44070E-08 15010   0.836E-04    0.257E-04
RMM:   5    -0.660752265620E+02   -0.83674E-10   -0.89728E-09 12474   0.496E-04
  23 F= -.66075227E+02 E0= -.66075227E+02  d E =-.160595E-05
       N       E                     dE             d eps       ncg     rms          rms(c)
DAV:   1    -0.660752258285E+02    0.73339E-06   -0.59323E-04 24216   0.642E-02    0.234E-03
RMM:   2    -0.660752265371E+02   -0.70855E-06   -0.74849E-06 24447   0.131E-02    0.970E-04
RMM:   3    -0.660752267804E+02   -0.24329E-06   -0.24006E-06 28620   0.736E-03    0.536E-04
RMM:   4    -0.660752267926E+02   -0.12193E-07   -0.19523E-07 24182   0.169E-03    0.492E-04
RMM:   5    -0.660752267923E+02    0.29104E-09   -0.28338E-08 14049   0.796E-04
  24 F= -.66075227E+02 E0= -.66075227E+02  d E =-.183621E-05
       N       E                     dE             d eps       ncg     rms          rms(c)
DAV:   1    -0.660752227378E+02    0.40548E-05   -0.30837E-03 24272   0.147E-01    0.517E-03
RMM:   2    -0.660752264454E+02   -0.37076E-05   -0.39105E-05 24334   0.299E-02    0.211E-03
RMM:   3    -0.660752276841E+02   -0.12387E-05   -0.12368E-05 28737   0.167E-02    0.121E-03
RMM:   4    -0.660752277560E+02   -0.71865E-07   -0.10363E-06 26278   0.390E-03    0.111E-03
RMM:   5    -0.660752277602E+02   -0.42455E-08   -0.17211E-07 23514   0.176E-03    0.808E-04
RMM:   6    -0.660752277591E+02    0.11132E-08   -0.32825E-08 14493   0.103E-03
  25 F= -.66075228E+02 E0= -.66075228E+02  d E =-.966847E-06
       N       E                     dE             d eps       ncg     rms          rms(c)
DAV:   1    -0.660752277628E+02   -0.26102E-08   -0.13501E-05 25024   0.971E-03    0.517E-04
RMM:   2    -0.660752277762E+02   -0.13317E-07   -0.19330E-07 23419   0.262E-03    0.284E-04
RMM:   3    -0.660752277858E+02   -0.96570E-08   -0.89054E-08 16803   0.144E-03    0.200E-04
RMM:   4    -0.660752277888E+02   -0.30141E-08   -0.17317E-08 11530   0.101E-03    0.166E-04
RMM:   5    -0.660752277884E+02    0.43656E-09   -0.62283E-09 11598   0.529E-04
  26 F= -.66075228E+02 E0= -.66075228E+02  d E =-.996122E-06
       N       E                     dE             d eps       ncg     rms          rms(c)
DAV:   1    -0.660752277480E+02    0.40825E-07   -0.53751E-05 24232   0.194E-02    0.685E-04
RMM:   2    -0.660752278141E+02   -0.66100E-07   -0.67545E-07 24256   0.403E-03    0.332E-04
RMM:   3    -0.660752278345E+02   -0.20411E-07   -0.24518E-07 25831   0.237E-03    0.225E-04
RMM:   4    -0.660752278363E+02   -0.17862E-08   -0.18706E-08 13106   0.586E-04    0.215E-04
RMM:   5    -0.660752278365E+02   -0.25284E-09   -0.48736E-09 11786   0.417E-04
  27 F= -.66075228E+02 E0= -.66075228E+02  d E =-.104428E-05
       N       E                     dE             d eps       ncg     rms          rms(c)
DAV:   1    -0.660752275353E+02    0.30097E-06   -0.21377E-04 24320   0.386E-02    0.138E-03
RMM:   2    -0.660752277916E+02   -0.25626E-06   -0.26922E-06 24383   0.793E-03    0.613E-04
RMM:   3    -0.660752278782E+02   -0.86602E-07   -0.91349E-07 28587   0.457E-03    0.353E-04
RMM:   4    -0.660752278839E+02   -0.57244E-08   -0.72088E-08 19763   0.105E-03    0.329E-04
RMM:   5    -0.660752278842E+02   -0.23283E-09   -0.10987E-08 12535   0.562E-04
  28 F= -.66075228E+02 E0= -.66075228E+02  d E =-.109188E-05
       N       E                     dE             d eps       ncg     rms          rms(c)
DAV:   1    -0.660752277409E+02    0.14302E-06   -0.65717E-05 24080   0.216E-02    0.849E-04
RMM:   2    -0.660752278204E+02   -0.79546E-07   -0.87518E-07 24160   0.567E-03    0.485E-04
RMM:   3    -0.660752278621E+02   -0.41702E-07   -0.45186E-07 26484   0.305E-03    0.281E-04
RMM:   4    -0.660752278648E+02   -0.27012E-08   -0.36910E-08 15406   0.861E-04    0.229E-04
RMM:   5    -0.660752278656E+02   -0.71850E-09   -0.84689E-09 11349   0.642E-04
  29 F= -.66075228E+02 E0= -.66075228E+02  d E =-.107330E-05
       N       E                     dE             d eps       ncg     rms          rms(c)
DAV:   1    -0.660752278249E+02    0.39969E-07   -0.32623E-05 24176   0.152E-02    0.582E-04
RMM:   2    -0.660752278622E+02   -0.37309E-07   -0.39923E-07 23972   0.347E-03    0.320E-04
RMM:   3    -0.660752278798E+02   -0.17597E-07   -0.18940E-07 23365   0.204E-03    0.202E-04
RMM:   4    -0.660752278808E+02   -0.10223E-08   -0.15328E-08 11631   0.623E-04    0.182E-04
RMM:   5    -0.660752278810E+02   -0.14188E-09   -0.51005E-09 11287   0.445E-04
  30 F= -.66075228E+02 E0= -.66075228E+02  d E =-.108869E-05
       N       E                     dE             d eps       ncg     rms          rms(c)
DAV:   1    -0.660752228657E+02    0.50151E-05   -0.34505E-03 24168   0.155E-01    0.514E-03
RMM:   2    -0.660752270308E+02   -0.41651E-05   -0.43313E-05 24441   0.311E-02    0.199E-03
RMM:   3    -0.660752282818E+02   -0.12510E-05   -0.12334E-05 28506   0.162E-02    0.113E-03
RMM:   4    -0.660752283628E+02   -0.80923E-07   -0.11232E-06 26385   0.412E-03    0.102E-03
RMM:   5    -0.660752283690E+02   -0.62464E-08   -0.21434E-07 22145   0.196E-03    0.765E-04
RMM:   6    -0.660752283668E+02    0.21846E-08   -0.44129E-08 16628   0.142E-03
  31 F= -.66075228E+02 E0= -.66075228E+02  d E =-.485865E-06
       N       E                     dE             d eps       ncg     rms          rms(c)
DAV:   1    -0.660752282960E+02    0.73007E-07   -0.34363E-05 24552   0.155E-02    0.459E-04
RMM:   2    -0.660752283396E+02   -0.43628E-07   -0.42078E-07 24105   0.314E-03    0.239E-04
RMM:   3    -0.660752283524E+02   -0.12769E-07   -0.13166E-07 22805   0.172E-03    0.212E-04
RMM:   4    -0.660752283535E+02   -0.10677E-08   -0.12050E-08 11754   0.564E-04    0.202E-04
RMM:   5    -0.660752283537E+02   -0.28012E-09   -0.47183E-09 11586   0.388E-04
  32 F= -.66075228E+02 E0= -.66075228E+02  d E =-.472788E-06
       N       E                     dE             d eps       ncg     rms          rms(c)
DAV:   1    -0.660752283455E+02    0.79854E-08   -0.12435E-05 24360   0.932E-03    0.337E-04
RMM:   2    -0.660752283610E+02   -0.15554E-07   -0.14985E-07 23236   0.190E-03    0.195E-04
RMM:   3    -0.660752283634E+02   -0.23465E-08   -0.46599E-08 16028   0.110E-03    0.165E-04
RMM:   4    -0.660752283638E+02   -0.41473E-09   -0.80507E-09 11326   0.644E-04    0.160E-04
RMM:   5    -0.660752283653E+02   -0.14934E-08   -0.37267E-09 11380   0.436E-04
  33 F= -.66075228E+02 E0= -.66075228E+02  d E =-.484331E-06
       N       E                     dE             d eps       ncg     rms          rms(c)
DAV:   1    -0.660752283602E+02    0.36162E-08   -0.13439E-06 24104   0.310E-03    0.198E-04
RMM:   2    -0.660752283597E+02    0.45111E-09   -0.17261E-08 11166   0.775E-04    0.162E-04
RMM:   3    -0.660752283622E+02   -0.24411E-08   -0.57283E-09 11028   0.519E-04    0.155E-04
RMM:   4    -0.660752283613E+02    0.85674E-09   -0.26050E-09 11041   0.363E-04    0.153E-04
RMM:   5    -0.660752283621E+02   -0.75306E-09   -0.12726E-09 10220   0.245E-04
  34 F= -.66075228E+02 E0= -.66075228E+02  d E =-.481108E-06
       N       E                     dE             d eps       ncg     rms          rms(c)
DAV:   1    -0.660752283627E+02   -0.13715E-08   -0.83178E-07 22944   0.243E-03    0.182E-04
RMM:   2    -0.660752283609E+02    0.17280E-08   -0.11307E-08 11044   0.653E-04    0.163E-04
RMM:   3    -0.660752283636E+02   -0.26284E-08   -0.39274E-09 10958   0.447E-04    0.154E-04
RMM:   4    -0.660752283632E+02    0.40382E-09   -0.17771E-09 11039   0.301E-04    0.154E-04
RMM:   5    -0.660752283642E+02   -0.10205E-08   -0.89190E-10 10042   0.217E-04
  35 F= -.66075228E+02 E0= -.66075228E+02  d E =-.483244E-06
       N       E                     dE             d eps       ncg     rms          rms(c)
DAV:   1    -0.660752283640E+02   -0.86220E-09   -0.68519E-09 12424   0.276E-04    0.155E-04
RMM:   2    -0.660752283660E+02   -0.19500E-08   -0.14369E-09  7490   0.265E-04    0.153E-04
RMM:   3    -0.660752283653E+02    0.67848E-09   -0.41189E-10  6773   0.128E-04    0.152E-04
RMM:   4    -0.660752283653E+02   -0.27285E-10   -0.17773E-10  5923   0.110E-04    0.153E-04
RMM:   5    -0.660752283655E+02   -0.17826E-09   -0.19005E-11  1617   0.751E-05
  36 F= -.66075228E+02 E0= -.66075228E+02  d E =-.484562E-06
       N       E                     dE             d eps       ncg     rms          rms(c)
DAV:   1    -0.660752283648E+02    0.53296E-09   -0.76905E-09 11808   0.269E-04    0.154E-04
RMM:   2    -0.660752283657E+02   -0.88403E-09   -0.12216E-09  7952   0.244E-04    0.153E-04
RMM:   3    -0.660752283654E+02    0.32742E-09   -0.33932E-10  6849   0.118E-04    0.152E-04
RMM:   4    -0.660752283654E+02   -0.43656E-10   -0.13975E-10  6203   0.980E-05    0.153E-04
RMM:   5    -0.660752283653E+02    0.13461E-09   -0.24159E-11  2911   0.748E-05
  37 F= -.66075228E+02 E0= -.66075228E+02  d E =-.484317E-06
       N       E                     dE             d eps       ncg     rms          rms(c)
DAV:   1    -0.660752283650E+02    0.36744E-09   -0.19863E-09 11568   0.163E-04    0.153E-04
RMM:   2    -0.660752283654E+02   -0.34925E-09   -0.49682E-10  5076   0.164E-04    0.153E-04
RMM:   3    -0.660752283653E+02    0.12005E-09   -0.13501E-10  4810   0.783E-05    0.152E-04
RMM:   4    -0.660752283653E+02    0.90949E-11   -0.46917E-11  3483   0.727E-05    0.152E-04
RMM:   5    -0.660752283651E+02    0.13461E-09   -0.48629E-12   753   0.597E-05
  38 F= -.66075228E+02 E0= -.66075228E+02  d E =-.484170E-06
       N       E                     dE             d eps       ncg     rms          rms(c)
DAV:   1    -0.660752283647E+02    0.50568E-09   -0.38078E-10 11424   0.158E-04    0.154E-04
RMM:   2    -0.660752283652E+02   -0.46930E-09   -0.36020E-10  5048   0.133E-04    0.152E-04
RMM:   3    -0.660752283651E+02    0.94587E-10   -0.10617E-10  4063   0.709E-05    0.152E-04
RMM:   4    -0.660752283652E+02   -0.87311E-10   -0.37208E-11  3121   0.673E-05    0.152E-04
RMM:   5    -0.660752283651E+02    0.83674E-10   -0.10559E-13   581   0.545E-05
  39 F= -.66075228E+02 E0= -.66075228E+02  d E =-.484177E-06
       N       E                     dE             d eps       ncg     rms          rms(c)
DAV:   1    -0.660752283652E+02    0.54570E-10   -0.21746E-10 11440   0.693E-05    0.152E-04
RMM:   2    -0.660752283652E+02   -0.52751E-10   -0.45278E-11  3461   0.619E-05    0.152E-04
RMM:   3    -0.660752283652E+02    0.14552E-10   -0.26254E-12   548   0.396E-05    0.152E-04
RMM:   4    -0.660752283652E+02   -0.72760E-11   -0.20718E-12   541   0.389E-05    0.152E-04
RMM:   5    -0.660752283652E+02   -0.14552E-10    0.00000E+00   391   0.381E-05
  40 F= -.66075228E+02 E0= -.66075228E+02  d E =-.484266E-06
       N       E                     dE             d eps       ncg     rms          rms(c)
DAV:   1    -0.660752283653E+02   -0.80036E-10   -0.69695E-11 11280   0.472E-05    0.152E-04
RMM:   2    -0.660752283653E+02   -0.23647E-10    0.00000E+00   307   0.394E-05    0.152E-04
RMM:   3    -0.660752283653E+02   -0.41837E-10   -0.17106E-14   319   0.403E-05    0.152E-04
RMM:   4    -0.660752283653E+02    0.38199E-10    0.00000E+00   326   0.403E-05    0.152E-04
RMM:   5    -0.660752283654E+02   -0.41837E-10    0.00000E+00   341   0.403E-05
  41 F= -.66075228E+02 E0= -.66075228E+02  d E =-.484401E-06
       N       E                     dE             d eps       ncg     rms          rms(c)
DAV:   1    -0.660752283653E+02   -0.16371E-10   -0.14745E-12 11312   0.427E-05    0.152E-04
RMM:   2    -0.660752283653E+02    0.60027E-10    0.00000E+00   273   0.255E-05    0.152E-04
RMM:   3    -0.660752283652E+02    0.16371E-10    0.00000E+00   282   0.269E-05    0.152E-04
RMM:   4    -0.660752283653E+02   -0.36380E-10    0.00000E+00   299   0.270E-05    0.152E-04
RMM:   5    -0.660752283653E+02   -0.27285E-10    0.00000E+00   303   0.270E-05
  42 F= -.66075228E+02 E0= -.66075228E+02  d E =-.484362E-06
       N       E                     dE             d eps       ncg     rms          rms(c)
DAV:   1    -0.660752283654E+02   -0.85493E-10    0.20595E-11 11136   0.283E-05    0.152E-04
RMM:   2    -0.660752283653E+02    0.74579E-10    0.00000E+00   246   0.223E-05    0.152E-04
RMM:   3    -0.660752283654E+02   -0.69122E-10    0.00000E+00   244   0.252E-05    0.152E-04
RMM:   4    -0.660752283654E+02    0.14552E-10    0.00000E+00   250   0.253E-05    0.152E-04
RMM:   5    -0.660752283654E+02   -0.47294E-10    0.00000E+00   265   0.253E-05
  43 F= -.66075228E+02 E0= -.66075228E+02  d E =-.484448E-06
       N       E                     dE             d eps       ncg     rms          rms(c)
DAV:   1    -0.660752283654E+02   -0.90949E-11    0.29394E-11 11120   0.258E-05    0.152E-04
RMM:   2    -0.660752283653E+02    0.25466E-10    0.00000E+00   218   0.163E-05    0.152E-04
RMM:   3    -0.660752283653E+02    0.90949E-11    0.00000E+00   223   0.218E-05    0.152E-04
RMM:   4    -0.660752283653E+02    0.54570E-11    0.00000E+00   228   0.219E-05    0.152E-04
RMM:   5    -0.660752283653E+02   -0.18190E-11    0.00000E+00   242   0.219E-05
  44 F= -.66075228E+02 E0= -.66075228E+02  d E =-.484371E-06
       N       E                     dE             d eps       ncg     rms          rms(c)
DAV:   1    -0.660752283653E+02    0.65484E-10    0.33400E-11 11064   0.221E-05    0.152E-04
RMM:   2    -0.660752283653E+02   -0.32742E-10    0.00000E+00   178   0.135E-05    0.152E-04
RMM:   3    -0.660752283653E+02   -0.27285E-10    0.00000E+00   180   0.200E-05    0.152E-04
RMM:   4    -0.660752283653E+02   -0.27285E-10    0.00000E+00   190   0.201E-05    0.152E-04
RMM:   5    -0.660752283653E+02    0.41837E-10    0.00000E+00   186   0.201E-05
  45 F= -.66075228E+02 E0= -.66075228E+02  d E =-.484350E-06
       N       E                     dE             d eps       ncg     rms          rms(c)
DAV:   1    -0.660752283653E+02    0.67303E-10    0.36566E-11 11072   0.203E-05    0.152E-04
RMM:   2    -0.660752283653E+02   -0.56389E-10    0.00000E+00   162   0.110E-05    0.152E-04
RMM:   3    -0.660752283653E+02    0.61846E-10    0.00000E+00   165   0.174E-05    0.152E-04
RMM:   4    -0.660752283653E+02   -0.18190E-11    0.00000E+00   172   0.174E-05    0.152E-04
RMM:   5    -0.660752283653E+02    0.90949E-11    0.00000E+00   174   0.175E-05
  46 F= -.66075228E+02 E0= -.66075228E+02  d E =-.484311E-06
       N       E                     dE             d eps       ncg     rms          rms(c)
DAV:   1    -0.660752283652E+02    0.65484E-10    0.37902E-11 10968   0.176E-05    0.152E-04
RMM:   2    -0.660752283653E+02   -0.56389E-10    0.00000E+00   150   0.899E-06    0.152E-04
RMM:   3    -0.660752283654E+02   -0.89130E-10    0.00000E+00   152   0.146E-05    0.152E-04
RMM:   4    -0.660752283654E+02   -0.25466E-10    0.00000E+00   157   0.147E-05    0.152E-04
RMM:   5    -0.660752283653E+02    0.47294E-10    0.00000E+00   160   0.147E-05
  47 F= -.66075228E+02 E0= -.66075228E+02  d E =-.484379E-06
       N       E                     dE             d eps       ncg     rms          rms(c)
DAV:   1    -0.660752283653E+02    0.43656E-10    0.41522E-11 11016   0.148E-05    0.152E-04
RMM:   2    -0.660752283653E+02   -0.12733E-10    0.00000E+00   144   0.730E-06    0.152E-04
RMM:   3    -0.660752283653E+02    0.38199E-10    0.00000E+00   146   0.120E-05    0.152E-04
RMM:   4    -0.660752283653E+02    0.18190E-10    0.00000E+00   156   0.121E-05    0.152E-04
RMM:   5    -0.660752283653E+02    0.00000E+00    0.00000E+00   159   0.121E-05
  48 F= -.66075228E+02 E0= -.66075228E+02  d E =-.484339E-06
       N       E                     dE             d eps       ncg     rms          rms(c)
DAV:   1    -0.660752228169E+02    0.55484E-05   -0.31784E-03 24160   0.149E-01    0.494E-03
RMM:   2    -0.660752266601E+02   -0.38432E-05   -0.39954E-05 24429   0.299E-02    0.190E-03
RMM:   3    -0.660752277993E+02   -0.11392E-05   -0.11192E-05 28497   0.154E-02    0.107E-03
RMM:   4    -0.660752278729E+02   -0.73540E-07   -0.10324E-06 26369   0.398E-03    0.958E-04
RMM:   5    -0.660752278784E+02   -0.55734E-08   -0.21050E-07 22492   0.192E-03    0.714E-04
RMM:   6    -0.660752278745E+02    0.39963E-08   -0.36324E-08 15790   0.123E-03
  49 F= -.66075228E+02 E0= -.66075228E+02  d E =0.649743E-08
