unknown system                          
           1
     0.000000    6.442517    6.442517
     6.442517    0.000000    6.442517
     6.442517    6.442517    0.000000
   Pb   Te
     8     8
Direct configuration=     1
   0.24859428  0.25144069  0.25029412
   0.75121883  0.24990423  0.24995270
   0.24974603  0.74957542  0.25054301
   0.75068377  0.74943573  0.24905031
   0.24984131  0.24986265  0.75087769
   0.74917214  0.24974251  0.75002643
   0.25020280  0.74840766  0.75028821
   0.74998577  0.75060848  0.74905670
   0.99985281  0.00089526  0.00045304
   0.49948385  0.99976920  0.00064355
   0.99953963  0.50038148  0.00034469
   0.50045390  0.50065763  0.99965620
   0.99992529  0.00041396  0.50016771
   0.50036506  0.99947814  0.50077689
   0.99957831  0.49947040  0.50076889
   0.49979694  0.49963581  0.50086376
Direct configuration=     2
   0.24885392  0.25127631  0.25027260
   0.75102127  0.24980038  0.25000178
   0.24973252  0.74958728  0.25047303
   0.75054927  0.74960211  0.24920542
   0.24992550  0.24974988  0.75073582
   0.74921522  0.24970536  0.75014569
   0.25027377  0.74864057  0.75024881
   0.74986091  0.75066490  0.74910777
   0.99985960  0.00071623  0.00044847
   0.49950299  0.99977589  0.00067509
   0.99961311  0.50032345  0.00032929
   0.50038636  0.50056401  0.99978081
   0.99999628  0.00037234  0.50017138
   0.50024942  0.99961565  0.50065989
   0.99958636  0.49954227  0.50074983
   0.49981423  0.49974260  0.50075823
Direct configuration=     3
   0.24961537  0.25079421  0.25020949
   0.75044189  0.24949583  0.25014572
   0.24969290  0.74962206  0.25026780
   0.75015481  0.75009007  0.24966031
   0.25017238  0.24941917  0.75031974
   0.74934157  0.24959639  0.75049544
   0.25048190  0.74932365  0.75013328
   0.74949471  0.75083039  0.74925756
   0.99987951  0.00019118  0.00043508
   0.49955910  0.99979553  0.00076759
   0.99982862  0.50015328  0.00028412
   0.50018829  0.50028945  0.00014626
   0.00020448  0.00025027  0.50018214
   0.49991029  0.00001895  0.50031672
   0.99960994  0.49975305  0.50069393
   0.49986495  0.50005578  0.50044871
Direct configuration=     4
   0.24964578  0.25074702  0.25012810
   0.75039757  0.24954979  0.25014938
   0.24967273  0.74962125  0.25031626
   0.75013508  0.75002819  0.24974663
   0.25013733  0.24952568  0.75026872
   0.74940063  0.24960330  0.75048200
   0.25041499  0.74939981  0.75014344
   0.74957467  0.75076247  0.74939246
   0.99989448  0.00011324  0.00039614
   0.49957854  0.99982172  0.00074544
   0.99984274  0.50014096  0.00024631
   0.50017513  0.50022548  0.00020093
   0.00020119  0.00020595  0.50021146
   0.49987202  0.00007677  0.50025286
   0.99961098  0.49980104  0.50069085
   0.49988686  0.50005655  0.50039294
Direct configuration=     5
   0.24970678  0.25065237  0.24996483
   0.75030868  0.24965804  0.25015672
   0.24963227  0.74961962  0.25041344
   0.75009549  0.74990407  0.24991977
   0.25006703  0.24973932  0.75016637
   0.74951909  0.24961717  0.75045506
   0.25028077  0.74955259  0.75016379
   0.74973506  0.75062624  0.74966305
   0.99992451 -0.00004311  0.00031802
   0.49961753  0.99987425  0.00070101
   0.99987107  0.50011627  0.00017046
   0.50014873  0.50009717  0.00031061
   0.00019457  0.00011705  0.50027026
   0.49979526  0.00019274  0.50012475
   0.99961308  0.49989732  0.50068469
   0.49993080  0.50005812  0.50028106
Direct configuration=     6
   0.24982878  0.25046307  0.24963830
   0.75013089  0.24987454  0.25017139
   0.24955135  0.74961638  0.25060782
   0.75001631  0.74965583  0.25026605
   0.24992642  0.25016660  0.74996168
   0.74975603  0.24964491  0.75040118
   0.25001234  0.74985815  0.75020451
   0.75005584  0.75035377  0.75020423
   0.99998457 -0.00035580  0.00016179
   0.49969550  0.99997931  0.00061214
   0.99992773  0.50006688  0.00001877
   0.50009595  0.49984055  0.00052997
   0.00018134 -0.00006074  0.50038785
   0.49964174  0.00042469  0.49986854
   0.99961726  0.50008986  0.50067236
   0.50001868  0.50006124  0.50005732
Direct configuration=     7
   0.24973872  0.25060281  0.24987935
   0.75026213  0.24971472  0.25016056
   0.24961108  0.74961877  0.25046433
   0.75007476  0.74983908  0.25001042
   0.25003022  0.24985118  0.75011279
   0.74958112  0.24962444  0.75044096
   0.25021050  0.74963259  0.75017445
   0.74981904  0.75055491  0.74980473
   0.99994023 -0.00012497  0.00027712
   0.49963794  0.99990176  0.00067774
   0.99988590  0.50010334  0.00013075
   0.50013492  0.50002999  0.00036804
   0.00019111  0.00007051  0.50030104
   0.49975507  0.00025346  0.50005767
   0.99961417  0.49994772  0.50068146
   0.49995381  0.50005893  0.50022249
Direct configuration=     8
   0.24977296  0.25054103  0.24989056
   0.75022464  0.24973157  0.25016897
   0.24962443  0.74965155  0.25045867
   0.75003568  0.74984765  0.25007816
   0.25001729  0.24986634  0.75010631
   0.74961977  0.24965404  0.75044456
   0.25020323  0.74970054  0.75017421
   0.74980982  0.75051982  0.74988037
   0.99995511 -0.00010390  0.00025039
   0.49964489  0.99992611  0.00062691
   0.99986598  0.50011887  0.00010596
   0.50012917  0.50002812  0.00033683
   0.00014940  0.00005000  0.50030471
   0.49979806  0.00020326  0.50007211
   0.99962648  0.49995225  0.50064137
   0.49996381  0.49999200  0.50022379
Direct configuration=     9
   0.24982333  0.25045016  0.24990706
   0.75016949  0.24975636  0.25018134
   0.24964406  0.74969976  0.25045035
   0.74997819  0.74986025  0.25017781
   0.24999826  0.24988865  0.75009679
   0.74967661  0.24969758  0.75044986
   0.25019255  0.74980050  0.75017386
   0.74979626  0.75046821  0.74999164
   0.99997698 -0.00007292  0.00021108
   0.49965512  0.99996195  0.00055215
   0.99983668  0.50014171  0.00006949
   0.50012073  0.50002537  0.00029093
   0.00008804  0.00001982  0.50031011
   0.49986130  0.00012942  0.50009334
   0.99964459  0.49995890  0.50058239
   0.49997852  0.49989353  0.50022570
Direct configuration=    10
   0.24984682  0.25040779  0.24991475
   0.75014378  0.24976791  0.25018711
   0.24965321  0.74972223  0.25044647
   0.74995138  0.74986612  0.25022426
   0.24998940  0.24989905  0.75009235
   0.74970311  0.24971788  0.75045234
   0.25018757  0.74984710  0.75017370
   0.74978994  0.75044415  0.75004351
   0.99998718 -0.00005847  0.00019275
   0.49965989  0.99997865  0.00051729
   0.99982302  0.50015236  0.00005249
   0.50011679  0.50002409  0.00026953
   0.00005944  0.00000576  0.50031263
   0.49989078  0.00009499  0.50010324
   0.99965304  0.49996200  0.50055489
   0.49998539  0.49984762  0.50022659
Direct configuration=    11
   0.24983244  0.25035496  0.24998309
   0.75013540  0.24981633  0.25018341
   0.24969483  0.74976761  0.25044126
   0.74992816  0.74987458  0.25024532
   0.24995092  0.24992195  0.75013621
   0.74974058  0.24976605  0.75043573
   0.25016079  0.74987409  0.75017605
   0.74980043  0.75037717  0.75010101
   0.99998390 -0.00008053  0.00020356
   0.49968206  0.99997926  0.00046373
   0.99985468  0.50011946  0.00007688
   0.50006495  0.50002254  0.00024501
   0.00003895  0.00000787  0.50027139
   0.49990521  0.00006518  0.50010664
   0.99968818  0.49996273  0.50046855
   0.49997923  0.49984999  0.50022604
Direct configuration=    12
   0.24981935  0.25030685  0.25004532
   0.75012778  0.24986042  0.25018004
   0.24973272  0.74980892  0.25043651
   0.74990702  0.74988228  0.25026450
   0.24991588  0.24994280  0.75017615
   0.74977470  0.24980991  0.75042061
   0.25013641  0.74989866  0.75017820
   0.74980999  0.75031619  0.75015337
   0.99998092 -0.00010061  0.00021341
   0.49970224  0.99997982  0.00041496
   0.99988351  0.50008950  0.00009909
   0.50001775  0.50002112  0.00022269
   0.00002029  0.00000979  0.50023384
   0.49991836  0.00003804  0.50010974
   0.99972019  0.49996340  0.50038992
   0.49997363  0.49985214  0.50022555
Direct configuration=    13
   0.24979317  0.25021064  0.25016977
   0.75011253  0.24994860  0.25017331
   0.24980851  0.74989156  0.25042702
   0.74986473  0.74989767  0.25030285
   0.24984580  0.24998450  0.75025604
   0.74984293  0.24989764  0.75039037
   0.25008764  0.74994781  0.75018249
   0.74982910  0.75019421  0.75025808
   0.99997494 -0.00014078  0.00023310
   0.49974261  0.99998094  0.00031743
   0.99994117  0.50002958  0.00014351
   0.49992334  0.50001829  0.00017804
  -0.00001703  0.00001364  0.50015874
   0.49994464 -0.00001624  0.50011592
   0.99978420  0.49996473  0.50023267
   0.49996243  0.49985645  0.50022455
Direct configuration=    14
   0.24980391  0.25025012  0.25011871
   0.75011878  0.24991242  0.25017607
   0.24977742  0.74985766  0.25043092
   0.74988208  0.74989135  0.25028711
   0.24987455  0.24996739  0.75022326
   0.74981494  0.24986165  0.75040278
   0.25010765  0.74992764  0.75018073
   0.74982126  0.75024425  0.75021512
   0.99997739 -0.00012430  0.00022502
   0.49972605  0.99998048  0.00035744
   0.99991751  0.50005416  0.00012528
   0.49996208  0.50001945  0.00019636
  -0.00000172  0.00001206  0.50018956
   0.49993386  0.00000603  0.50011339
   0.99975794  0.49996418  0.50029719
   0.49996703  0.49985469  0.50022496
Direct configuration=    15
   0.24980087  0.25023895  0.25013316
   0.75011701  0.24992266  0.25017529
   0.24978622  0.74986725  0.25042982
   0.74987717  0.74989314  0.25029157
   0.24986641  0.24997223  0.75023254
   0.74982286  0.24987183  0.75039927
   0.25010199  0.74993335  0.75018123
   0.74982348  0.75023009  0.75022728
   0.99997670 -0.00012896  0.00022730
   0.49973073  0.99998061  0.00034612
   0.99992420  0.50004721  0.00013044
   0.49995112  0.50001912  0.00019118
  -0.00000605  0.00001251  0.50018084
   0.49993691 -0.00000027  0.50011410
   0.99976537  0.49996434  0.50027893
   0.49996573  0.49985519  0.50022485
Direct configuration=    16
   0.24980241  0.25024460  0.25012584
   0.75011791  0.24991748  0.25017568
   0.24978176  0.74986239  0.25043037
   0.74987966  0.74989224  0.25028931
   0.24987053  0.24996978  0.75022784
   0.74981885  0.24986668  0.75040104
   0.25010485  0.74993046  0.75018097
   0.74982236  0.75023726  0.75022112
   0.99997705 -0.00012660  0.00022615
   0.49972836  0.99998055  0.00035185
   0.99992082  0.50005073  0.00012783
   0.49995666  0.50001929  0.00019380
  -0.00000386  0.00001228  0.50018525
   0.49993537  0.00000292  0.50011374
   0.99976161  0.49996426  0.50028817
   0.49996638  0.49985493  0.50022491
Direct configuration=    17
   0.24983398  0.25016518  0.25021091
   0.75006994  0.24995074  0.25017196
   0.24983861  0.74989455  0.25039486
   0.74984944  0.74994915  0.25027295
   0.24985478  0.24995513  0.75025384
   0.74984547  0.24989450  0.75039488
   0.25007523  0.74996294  0.75017061
   0.74982445  0.75017144  0.75022973
   0.99994722 -0.00013059  0.00023146
   0.49979031  0.99997000  0.00028164
   0.99993815  0.50001839  0.00013144
   0.49994917  0.49999966  0.00019611
  -0.00004483  0.00000165  0.50019175
   0.49993041  0.00002505  0.50012607
   0.99979069  0.49997186  0.50027813
   0.49994769  0.49987957  0.50022755
Direct configuration=    18
   0.24983729  0.25015685  0.25021983
   0.75006492  0.24995423  0.25017156
   0.24984457  0.74989793  0.25039114
   0.74984627  0.74995511  0.25027123
   0.24985313  0.24995359  0.75025656
   0.74984827  0.24989742  0.75039423
   0.25007213  0.74996635  0.75016953
   0.74982467  0.75016454  0.75023063
   0.99994410 -0.00013101  0.00023202
   0.49979681  0.99996890  0.00027427
   0.99993997  0.50001500  0.00013182
   0.49994838  0.49999761  0.00019636
  -0.00004912  0.00000054  0.50019243
   0.49992989  0.00002738  0.50012736
   0.99979374  0.49997266  0.50027708
   0.49994573  0.49988215  0.50022783
Direct configuration=    19
   0.24984391  0.25014020  0.25023767
   0.75005486  0.24996121  0.25017078
   0.24985649  0.74990467  0.25038369
   0.74983993  0.74996705  0.25026780
   0.24984983  0.24995052  0.75026201
   0.74985385  0.24990326  0.75039294
   0.25006592  0.74997316  0.75016735
   0.74982511  0.75015074  0.75023244
   0.99993784 -0.00013184  0.00023313
   0.49980980  0.99996668  0.00025955
   0.99994361  0.50000822  0.00013258
   0.49994681  0.49999349  0.00019684
  -0.00005771 -0.00000169  0.50019380
   0.49992885  0.00003202  0.50012995
   0.99979983  0.49997426  0.50027497
   0.49994181  0.49988731  0.50022838
Direct configuration=    20
   0.24983976  0.25015064  0.25022648
   0.75006116  0.24995683  0.25017127
   0.24984901  0.74990044  0.25038836
   0.74984391  0.74995956  0.25026995
   0.24985190  0.24995245  0.75025860
   0.74985035  0.24989960  0.75039375
   0.25006981  0.74996888  0.75016872
   0.74982483  0.75015939  0.75023131
   0.99994176 -0.00013132  0.00023244
   0.49980165  0.99996807  0.00026878
   0.99994133  0.50001247  0.00013210
   0.49994780  0.49999607  0.00019654
  -0.00005233 -0.00000029  0.50019294
   0.49992950  0.00002911  0.50012832
   0.99979601  0.49997326  0.50027629
   0.49994426  0.49988407  0.50022803
Direct configuration=    21
   0.24984234  0.25014415  0.25023344
   0.75005724  0.24995955  0.25017097
   0.24985366  0.74990307  0.25038546
   0.74984143  0.74996422  0.25026862
   0.24985061  0.24995125  0.75026072
   0.74985252  0.24990187  0.75039325
   0.25006739  0.74997154  0.75016787
   0.74982500  0.75015401  0.75023201
   0.99993933 -0.00013164  0.00023287
   0.49980672  0.99996721  0.00026304
   0.99994274  0.50000983  0.00013240
   0.49994718  0.49999447  0.00019673
  -0.00005568 -0.00000116  0.50019347
   0.49992909  0.00003092  0.50012933
   0.99979839  0.49997388  0.50027547
   0.49994274  0.49988609  0.50022825
Direct configuration=    22
   0.24984889  0.25011378  0.25023981
   0.75003586  0.24997749  0.25016851
   0.24986848  0.74990961  0.25036675
   0.74984906  0.74996409  0.25024999
   0.24984573  0.24996242  0.75025993
   0.74986500  0.24991001  0.75036590
   0.25003201  0.74997145  0.75016985
   0.74985330  0.75011103  0.75023021
   0.99992918 -0.00011134  0.00023390
   0.49982866  0.99997621  0.00025794
   0.99993223  0.50001858  0.00014236
   0.49993877  0.49998685  0.00021392
  -0.00006887 -0.00001175  0.50021543
   0.49992906  0.00002840  0.50014498
   0.99982206  0.49997959  0.50027048
   0.49993129  0.49989282  0.50023394
Direct configuration=    23
   0.24985034  0.25010706  0.25024122
   0.75003113  0.24998146  0.25016796
   0.24987175  0.74991105  0.25036261
   0.74985075  0.74996406  0.25024587
   0.24984465  0.24996489  0.75025975
   0.74986776  0.24991181  0.75035985
   0.25002418  0.74997143  0.75017029
   0.74985956  0.75010152  0.75022981
   0.99992694 -0.00010684  0.00023412
   0.49983351  0.99997821  0.00025681
   0.99992990  0.50002052  0.00014457
   0.49993691  0.49998516  0.00021772
  -0.00007179 -0.00001409  0.50022029
   0.49992905  0.00002784  0.50014844
   0.99982730  0.49998086  0.50026938
   0.49992876  0.49989430  0.50023521
Direct configuration=    24
   0.24985324  0.25009362  0.25024405
   0.75002167  0.24998940  0.25016687
   0.24987831  0.74991395  0.25035433
   0.74985412  0.74996401  0.25023762
   0.24984249  0.24996983  0.75025940
   0.74987328  0.24991542  0.75034775
   0.25000853  0.74997139  0.75017117
   0.74987209  0.75008250  0.75022901
   0.99992245 -0.00009786  0.00023458
   0.49984322  0.99998219  0.00025455
   0.99992525  0.50002439  0.00014897
   0.49993319  0.49998179  0.00022533
  -0.00007762 -0.00001877  0.50023001
   0.49992904  0.00002673  0.50015536
   0.99983777  0.49998339  0.50026717
   0.49992369  0.49989728  0.50023773
Direct configuration=    25
   0.24987473  0.25005654  0.25023738
   0.74999101  0.24998175  0.25017457
   0.24988673  0.74992787  0.25031619
   0.74985650  0.74997070  0.25023823
   0.24985841  0.24995962  0.75024559
   0.74988179  0.24992701  0.75032076
   0.24999360  0.74998051  0.75017365
   0.74987141  0.75005761  0.75022464
   0.99992070 -0.00007903  0.00024117
   0.49985265  0.99999174  0.00026123
   0.99991915  0.50002195  0.00017835
   0.49991580  0.49998328  0.00023815
  -0.00008139 -0.00001818  0.50023847
   0.49992379  0.00001361  0.50017846
   0.99985671  0.49998903  0.50025449
   0.49991913  0.49991523  0.50024257
Direct configuration=    26
   0.24987614  0.25005409  0.25023694
   0.74998899  0.24998125  0.25017508
   0.24988729  0.74992879  0.25031369
   0.74985666  0.74997114  0.25023827
   0.24985946  0.24995894  0.75024468
   0.74988235  0.24992777  0.75031898
   0.24999262  0.74998111  0.75017382
   0.74987136  0.75005598  0.75022435
   0.99992058 -0.00007779  0.00024160
   0.49985327  0.99999237  0.00026167
   0.99991875  0.50002179  0.00018028
   0.49991465  0.49998338  0.00023900
  -0.00008164 -0.00001814  0.50023903
   0.49992345  0.00001275  0.50017998
   0.99985796  0.49998941  0.50025365
   0.49991883  0.49991642  0.50024288
Direct configuration=    27
   0.24987897  0.25004921  0.25023606
   0.74998496  0.24998024  0.25017609
   0.24988840  0.74993062  0.25030867
   0.74985697  0.74997202  0.25023835
   0.24986155  0.24995760  0.75024286
   0.74988347  0.24992930  0.75031543
   0.24999066  0.74998231  0.75017414
   0.74987127  0.75005270  0.75022378
   0.99992035 -0.00007531  0.00024247
   0.49985451  0.99999362  0.00026254
   0.99991795  0.50002147  0.00018414
   0.49991236  0.49998358  0.00024069
  -0.00008213 -0.00001807  0.50024014
   0.49992276  0.00001102  0.50018302
   0.99986045  0.49999015  0.50025198
   0.49991823  0.49991878  0.50024352
Direct configuration=    28
   0.24988463  0.25003945  0.25023431
   0.74997689  0.24997823  0.25017812
   0.24989061  0.74993429  0.25029863
   0.74985759  0.74997378  0.25023850
   0.24986575  0.24995491  0.75023923
   0.74988571  0.24993235  0.75030832
   0.24998673  0.74998471  0.75017480
   0.74987109  0.75004615  0.75022263
   0.99991989 -0.00007036  0.00024420
   0.49985699  0.99999613  0.00026430
   0.99991635  0.50002083  0.00019187
   0.49990779  0.49998397  0.00024406
  -0.00008312 -0.00001791  0.50024237
   0.49992137  0.00000757  0.50018910
   0.99986544  0.49999164  0.50024865
   0.49991702  0.49992350  0.50024479
Direct configuration=    29
   0.24988148  0.25004489  0.25023528
   0.74998138  0.24997935  0.25017699
   0.24988938  0.74993225  0.25030422
   0.74985725  0.74997280  0.25023842
   0.24986341  0.24995641  0.75024125
   0.74988446  0.24993065  0.75031228
   0.24998892  0.74998337  0.75017443
   0.74987119  0.75004980  0.75022327
   0.99992014 -0.00007311  0.00024324
   0.49985560  0.99999474  0.00026332
   0.99991724  0.50002118  0.00018757
   0.49991033  0.49998375  0.00024218
  -0.00008257 -0.00001800  0.50024113
   0.49992214  0.00000949  0.50018572
   0.99986266  0.49999081  0.50025050
   0.49991769  0.49992087  0.50024409
Direct configuration=    30
   0.24988370  0.25004105  0.25023459
   0.74997821  0.24997856  0.25017779
   0.24989025  0.74993369  0.25030027
   0.74985749  0.74997349  0.25023848
   0.24986506  0.24995535  0.75023982
   0.74988534  0.24993185  0.75030949
   0.24998737  0.74998431  0.75017469
   0.74987112  0.75004723  0.75022282
   0.99991996 -0.00007117  0.00024392
   0.49985658  0.99999572  0.00026401
   0.99991661  0.50002093  0.00019061
   0.49990854  0.49998391  0.00024351
  -0.00008296 -0.00001794  0.50024200
   0.49992160  0.00000813  0.50018811
   0.99986462  0.49999139  0.50024919
   0.49991722  0.49992273  0.50024459
Direct configuration=    31
   0.24988545  0.25001243  0.25022221
   0.74995680  0.24997715  0.25018865
   0.24989531  0.74995164  0.25026680
   0.74987467  0.74996257  0.25023631
   0.24987610  0.24996390  0.75023178
   0.74989694  0.24995116  0.75026712
   0.24995823  0.74997963  0.75018802
   0.74988426  0.75001321  0.75022721
   0.99991660 -0.00005144  0.00025070
   0.49987026  0.99999618  0.00025757
   0.99991369  0.50000225  0.00022169
   0.49990150  0.49998935  0.00024551
  -0.00009209 -0.00001085  0.50024336
   0.49991315 -0.00000160  0.50021847
   0.99987429  0.49999465  0.50024904
   0.49991556  0.49994899  0.50024946
Direct configuration=    32
   0.24988527  0.25001530  0.25022346
   0.74995894  0.24997730  0.25018756
   0.24989480  0.74994984  0.25027015
   0.74987294  0.74996367  0.25023653
   0.24987499  0.24996304  0.75023258
   0.74989578  0.24994922  0.75027137
   0.24996115  0.74998010  0.75018669
   0.74988295  0.75001662  0.75022677
   0.99991694 -0.00005341  0.00025002
   0.49986889  0.99999613  0.00025822
   0.99991398  0.50000413  0.00021857
   0.49990221  0.49998880  0.00024531
  -0.00009118 -0.00001156  0.50024322
   0.49991400 -0.00000062  0.50021542
   0.99987332  0.49999433  0.50024905
   0.49991573  0.49994636  0.50024897
Direct configuration=    33
   0.24988538  0.25001358  0.25022271
   0.74995765  0.24997721  0.25018821
   0.24989511  0.74995092  0.25026814
   0.74987398  0.74996301  0.25023640
   0.24987566  0.24996356  0.75023210
   0.74989648  0.24995039  0.75026882
   0.24995940  0.74997982  0.75018749
   0.74988374  0.75001457  0.75022703
   0.99991674 -0.00005223  0.00025043
   0.49986971  0.99999616  0.00025783
   0.99991380  0.50000300  0.00022044
   0.49990179  0.49998913  0.00024543
  -0.00009173 -0.00001114  0.50024331
   0.49991349 -0.00000121  0.50021725
   0.99987390  0.49999452  0.50024904
   0.49991563  0.49994794  0.50024927
Direct configuration=    34
   0.24988534  0.25001416  0.25022296
   0.74995808  0.24997724  0.25018800
   0.24989501  0.74995056  0.25026881
   0.74987363  0.74996323  0.25023644
   0.24987544  0.24996339  0.75023226
   0.74989624  0.24995000  0.75026967
   0.24995998  0.74997991  0.75018722
   0.74988347  0.75001526  0.75022694
   0.99991681 -0.00005262  0.00025029
   0.49986943  0.99999615  0.00025796
   0.99991386  0.50000338  0.00021982
   0.49990193  0.49998902  0.00024539
  -0.00009155 -0.00001128  0.50024328
   0.49991366 -0.00000101  0.50021664
   0.99987371  0.49999446  0.50024905
   0.49991566  0.49994741  0.50024917
Direct configuration=    35
   0.24988537  0.25001370  0.25022276
   0.74995775  0.24997722  0.25018817
   0.24989509  0.74995084  0.25026828
   0.74987390  0.74996306  0.25023641
   0.24987561  0.24996352  0.75023214
   0.74989643  0.24995030  0.75026900
   0.24995952  0.74997984  0.75018743
   0.74988368  0.75001472  0.75022701
   0.99991675 -0.00005231  0.00025040
   0.49986965  0.99999616  0.00025786
   0.99991381  0.50000308  0.00022031
   0.49990182  0.49998910  0.00024542
  -0.00009169 -0.00001117  0.50024330
   0.49991353 -0.00000116  0.50021712
   0.99987386  0.49999451  0.50024904
   0.49991564  0.49994782  0.50024924
Direct configuration=    36
   0.24988537  0.25001367  0.25022275
   0.74995772  0.24997722  0.25018818
   0.24989509  0.74995087  0.25026824
   0.74987393  0.74996304  0.25023641
   0.24987563  0.24996353  0.75023212
   0.74989644  0.24995033  0.75026895
   0.24995948  0.74997983  0.75018745
   0.74988370  0.75001468  0.75022702
   0.99991675 -0.00005229  0.00025041
   0.49986967  0.99999616  0.00025785
   0.99991381  0.50000306  0.00022035
   0.49990181  0.49998911  0.00024542
  -0.00009170 -0.00001116  0.50024330
   0.49991352 -0.00000118  0.50021716
   0.99987387  0.49999451  0.50024904
   0.49991563  0.49994786  0.50024925
Direct configuration=    37
   0.24988537  0.25001362  0.25022273
   0.74995769  0.24997721  0.25018820
   0.24989510  0.74995089  0.25026819
   0.74987395  0.74996303  0.25023640
   0.24987564  0.24996355  0.75023211
   0.74989646  0.24995036  0.75026888
   0.24995944  0.74997982  0.75018747
   0.74988372  0.75001463  0.75022703
   0.99991674 -0.00005226  0.00025042
   0.49986969  0.99999616  0.00025784
   0.99991381  0.50000303  0.00022040
   0.49990180  0.49998912  0.00024542
  -0.00009171 -0.00001115  0.50024330
   0.49991351 -0.00000119  0.50021721
   0.99987389  0.49999452  0.50024904
   0.49991563  0.49994790  0.50024926
Direct configuration=    38
   0.24988538  0.25001360  0.25022272
   0.74995767  0.24997721  0.25018821
   0.24989511  0.74995091  0.25026816
   0.74987397  0.74996302  0.25023640
   0.24987565  0.24996355  0.75023211
   0.74989647  0.24995037  0.75026885
   0.24995942  0.74997982  0.75018748
   0.74988373  0.75001460  0.75022703
   0.99991674 -0.00005224  0.00025042
   0.49986970  0.99999616  0.00025783
   0.99991380  0.50000302  0.00022042
   0.49990179  0.49998912  0.00024543
  -0.00009172 -0.00001114  0.50024330
   0.49991350 -0.00000120  0.50021723
   0.99987390  0.49999452  0.50024904
   0.49991563  0.49994792  0.50024926
Direct configuration=    39
   0.24988538  0.25001359  0.25022272
   0.74995766  0.24997721  0.25018821
   0.24989511  0.74995091  0.25026815
   0.74987397  0.74996301  0.25023640
   0.24987566  0.24996356  0.75023210
   0.74989647  0.24995038  0.75026884
   0.24995941  0.74997982  0.75018748
   0.74988373  0.75001459  0.75022703
   0.99991674 -0.00005223  0.00025042
   0.49986970  0.99999616  0.00025783
   0.99991380  0.50000301  0.00022043
   0.49990179  0.49998913  0.00024543
  -0.00009173 -0.00001114  0.50024330
   0.49991350 -0.00000120  0.50021724
   0.99987390  0.49999452  0.50024904
   0.49991563  0.49994793  0.50024926
Direct configuration=    40
   0.24988538  0.25001359  0.25022271
   0.74995766  0.24997721  0.25018821
   0.24989511  0.74995092  0.25026815
   0.74987398  0.74996301  0.25023640
   0.24987566  0.24996356  0.75023210
   0.74989648  0.24995038  0.75026883
   0.24995940  0.74997982  0.75018749
   0.74988373  0.75001458  0.75022703
   0.99991674 -0.00005223  0.00025043
   0.49986971  0.99999616  0.00025783
   0.99991380  0.50000300  0.00022044
   0.49990179  0.49998913  0.00024543
  -0.00009173 -0.00001114  0.50024331
   0.49991349 -0.00000120  0.50021724
   0.99987390  0.49999452  0.50024904
   0.49991563  0.49994793  0.50024926
Direct configuration=    41
   0.24988538  0.25001358  0.25022271
   0.74995766  0.24997721  0.25018821
   0.24989511  0.74995092  0.25026814
   0.74987398  0.74996301  0.25023640
   0.24987566  0.24996356  0.75023210
   0.74989648  0.24995039  0.75026882
   0.24995940  0.74997982  0.75018749
   0.74988374  0.75001458  0.75022703
   0.99991674 -0.00005223  0.00025043
   0.49986971  0.99999616  0.00025783
   0.99991380  0.50000300  0.00022044
   0.49990179  0.49998913  0.00024543
  -0.00009173 -0.00001114  0.50024331
   0.49991349 -0.00000120  0.50021725
   0.99987390  0.49999452  0.50024904
   0.49991563  0.49994793  0.50024926
Direct configuration=    42
   0.24988538  0.25001358  0.25022271
   0.74995766  0.24997721  0.25018821
   0.24989511  0.74995092  0.25026814
   0.74987398  0.74996301  0.25023640
   0.24987566  0.24996356  0.75023210
   0.74989648  0.24995039  0.75026882
   0.24995940  0.74997982  0.75018749
   0.74988374  0.75001458  0.75022703
   0.99991674 -0.00005223  0.00025043
   0.49986971  0.99999616  0.00025783
   0.99991380  0.50000300  0.00022044
   0.49990179  0.49998913  0.00024543
  -0.00009173 -0.00001114  0.50024331
   0.49991349 -0.00000121  0.50021725
   0.99987390  0.49999452  0.50024904
   0.49991563  0.49994794  0.50024927
Direct configuration=    43
   0.24988538  0.25001358  0.25022271
   0.74995765  0.24997721  0.25018821
   0.24989511  0.74995092  0.25026814
   0.74987398  0.74996301  0.25023640
   0.24987566  0.24996356  0.75023210
   0.74989648  0.24995039  0.75026882
   0.24995940  0.74997982  0.75018749
   0.74988374  0.75001458  0.75022703
   0.99991674 -0.00005223  0.00025043
   0.49986971  0.99999616  0.00025783
   0.99991380  0.50000300  0.00022044
   0.49990179  0.49998913  0.00024543
  -0.00009173 -0.00001114  0.50024331
   0.49991349 -0.00000121  0.50021725
   0.99987390  0.49999452  0.50024904
   0.49991563  0.49994794  0.50024927
Direct configuration=    44
   0.24988538  0.25001358  0.25022271
   0.74995765  0.24997721  0.25018821
   0.24989511  0.74995092  0.25026814
   0.74987398  0.74996301  0.25023640
   0.24987566  0.24996356  0.75023210
   0.74989648  0.24995039  0.75026882
   0.24995940  0.74997982  0.75018749
   0.74988374  0.75001458  0.75022703
   0.99991674 -0.00005223  0.00025043
   0.49986971  0.99999616  0.00025783
   0.99991380  0.50000300  0.00022044
   0.49990179  0.49998913  0.00024543
  -0.00009173 -0.00001114  0.50024331
   0.49991349 -0.00000121  0.50021725
   0.99987390  0.49999452  0.50024904
   0.49991563  0.49994794  0.50024927
Direct configuration=    45
   0.24988538  0.25001358  0.25022271
   0.74995765  0.24997721  0.25018821
   0.24989511  0.74995092  0.25026814
   0.74987398  0.74996301  0.25023640
   0.24987566  0.24996356  0.75023210
   0.74989648  0.24995039  0.75026882
   0.24995940  0.74997982  0.75018749
   0.74988374  0.75001458  0.75022703
   0.99991674 -0.00005223  0.00025043
   0.49986971  0.99999616  0.00025783
   0.99991380  0.50000300  0.00022044
   0.49990179  0.49998913  0.00024543
  -0.00009173 -0.00001114  0.50024331
   0.49991349 -0.00000121  0.50021725
   0.99987390  0.49999452  0.50024904
   0.49991563  0.49994794  0.50024927
Direct configuration=    46
   0.24988538  0.25001358  0.25022271
   0.74995765  0.24997721  0.25018821
   0.24989511  0.74995092  0.25026814
   0.74987398  0.74996301  0.25023640
   0.24987566  0.24996356  0.75023210
   0.74989648  0.24995039  0.75026882
   0.24995940  0.74997982  0.75018749
   0.74988374  0.75001458  0.75022703
   0.99991674 -0.00005223  0.00025043
   0.49986971  0.99999616  0.00025783
   0.99991380  0.50000300  0.00022044
   0.49990179  0.49998913  0.00024543
  -0.00009173 -0.00001114  0.50024331
   0.49991349 -0.00000121  0.50021725
   0.99987390  0.49999452  0.50024904
   0.49991563  0.49994794  0.50024927
Direct configuration=    47
   0.24988538  0.25001358  0.25022271
   0.74995765  0.24997721  0.25018821
   0.24989511  0.74995092  0.25026814
   0.74987398  0.74996301  0.25023640
   0.24987566  0.24996356  0.75023210
   0.74989648  0.24995039  0.75026882
   0.24995940  0.74997982  0.75018749
   0.74988374  0.75001458  0.75022703
   0.99991674 -0.00005223  0.00025043
   0.49986971  0.99999616  0.00025783
   0.99991380  0.50000300  0.00022044
   0.49990179  0.49998913  0.00024543
  -0.00009173 -0.00001114  0.50024331