       N       E                     dE             d eps       ncg     rms          rms(c)
DAV:   1     0.154592976803E+03    0.15459E+03   -0.26175E+04  1536   0.123E+03
DAV:   2    -0.793979605952E+02   -0.23399E+03   -0.21532E+03  1872   0.169E+02
DAV:   3    -0.934068271043E+02   -0.14009E+02   -0.13741E+02  1984   0.364E+01
DAV:   4    -0.937099459694E+02   -0.30312E+00   -0.30156E+00  1920   0.645E+00
DAV:   5    -0.937174697851E+02   -0.75238E-02   -0.75169E-02  1936   0.970E-01    0.140E+01
RMM:   6    -0.924929015796E+02    0.12246E+01   -0.54404E-01  1536   0.201E+00    0.842E+00
RMM:   7    -0.919316296711E+02    0.56127E+00   -0.12876E+00  1536   0.318E+00    0.462E-01
RMM:   8    -0.919417537308E+02   -0.10124E-01   -0.11942E-01  1542   0.118E+00    0.249E-01
RMM:   9    -0.919451504837E+02   -0.33968E-02   -0.35032E-02  1557   0.578E-01    0.271E-01
RMM:  10    -0.919456918017E+02   -0.54132E-03   -0.58918E-03  1560   0.284E-01    0.280E-01
RMM:  11    -0.919448229166E+02    0.86889E-03   -0.20901E-03  1536   0.176E-01    0.123E+00
RMM:  12    -0.919457649883E+02   -0.94207E-03   -0.20852E-03  1536   0.182E-01    0.259E-01
RMM:  13    -0.919458480351E+02   -0.83047E-04   -0.20069E-04  1536   0.579E-02    0.101E-01
RMM:  14    -0.919458554759E+02   -0.74408E-05   -0.58506E-05  1607   0.291E-02    0.567E-02
RMM:  15    -0.919458556522E+02   -0.17633E-06   -0.88680E-06  1548   0.131E-02    0.242E-02
RMM:  16    -0.919458566419E+02   -0.98969E-06   -0.24186E-06  1604   0.588E-03    0.175E-02
RMM:  17    -0.919458564364E+02    0.20557E-06   -0.73016E-07  1536   0.343E-03    0.497E-04
RMM:  18    -0.919458564643E+02   -0.27969E-07   -0.15996E-07  1511   0.156E-03    0.218E-03
RMM:  19    -0.919458564456E+02    0.18689E-07   -0.22236E-08  1101   0.611E-04    0.209E-03
RMM:  20    -0.919458564622E+02   -0.16589E-07   -0.84920E-09  1029   0.331E-04    0.125E-03
RMM:  21    -0.919458564873E+02   -0.25073E-07   -0.49257E-09  1009   0.254E-04    0.223E-04
RMM:  22    -0.919458564918E+02   -0.44956E-08   -0.77674E-10   780   0.107E-04
   1 F= -.91945856E+02 E0= -.91945856E+02  d E =-.919459E+02
