unknown system                          
           1
     0.000000    5.435812    5.435812
     5.435812    0.000000    5.435812
     5.435812    5.435812    0.000000
   Si
    16
Direct configuration=     1
   0.12503389  0.12512838  0.12544094
   0.62503444  0.12512956  0.12544034
   0.12503441  0.62512796  0.12544208
   0.62503379  0.62512939  0.12544259
   0.12503397  0.12512759  0.62544099
   0.62503330  0.12512970  0.62544108
   0.12503332  0.62512829  0.62544235
   0.62503426  0.62512958  0.62544182
   0.00003446  0.00012796  0.00044093
   0.50003400  0.00012940  0.00044099
   0.00003394  0.50012840  0.00044223
   0.50003457  0.50012960  0.00044176
   0.00003345  0.00012838  0.50044087
   0.50003417  0.00012974  0.50044034
   0.00003439  0.50012765  0.50044206
   0.50003342  0.50012976  0.50044252
