<?xml version="1.0" encoding="ISO-8859-1"?>
<modeling>
 <generator>
  <i name="program" type="string">vasp </i>
  <i name="version" type="string">6.3.0  </i>
  <i name="subversion" type="string">20Jan22 (build Feb 21 2022 11:18:28) complex                          parallel </i>
  <i name="platform" type="string">CrayXC_GCC_OMP </i>
  <i name="date" type="string">2023 09 28 </i>
  <i name="time" type="string">06:28:28 </i>
 </generator>
 <incar>
  <i type="int" name="ISTART">     1</i>
  <i type="string" name="PREC">Accurate  (Precision level)</i>
  <i type="string" name="ALGO">FAST      (SCF minimisation algorithm</i>
  <i type="logical" name="ADDGRID"> T  </i>
  <i type="int" name="ISPIN">     1</i>
  <i type="int" name="INIWAV">     1</i>
  <i type="int" name="NELM">   500</i>
  <i type="int" name="NELMIN">     5</i>
  <i type="int" name="IBRION">     2</i>
  <i name="EDIFF">      0.00000001</i>
  <i name="EDIFFG">     -0.00000010</i>
  <i type="int" name="NSW">   200</i>
  <i type="int" name="ISIF">     7</i>
  <i type="int" name="ISYM">     2</i>
  <i type="int" name="NBLOCK">     1</i>
  <i name="ENMAX">    600.00000000</i>
  <i type="int" name="NEDOS">  1000</i>
  <i type="logical" name="LREAL"> F  </i>
  <i type="logical" name="LPLANE"> T  </i>
  <i type="int" name="ISMEAR">     0</i>
  <i name="SIGMA">      0.01000000</i>
  <i type="int" name="NWRITE">     2</i>
  <i type="int" name="LMAXMIX">     4</i>
  <i type="int" name="LORBIT">    11</i>
  <i type="int" name="ICORELEVEL">     1</i>
  <i type="string" name="GGA">PS     (PBEsol exchange-correlation)</i>
  <i type="logical" name="ML_LMLFF"> T  </i>
 </incar>
 <primitive_cell>
  <structure name="primitive_cell" >
   <crystal>
    <varray name="basis" >
     <v>       0.00000000       3.22215235       3.22215235 </v>
     <v>       3.22215235       0.00000000       3.22215235 </v>
     <v>       3.22215235       3.22215235       0.00000000 </v>
    </varray>
    <i name="volume">     66.90648405 </i>
    <varray name="rec_basis" >
     <v>      -0.15517578       0.15517578       0.15517578 </v>
     <v>       0.15517578      -0.15517578       0.15517578 </v>
     <v>       0.15517578       0.15517578      -0.15517578 </v>
    </varray>
   </crystal>
   <varray name="positions" >
    <v>       0.50000000       0.50000000       0.50000000 </v>
    <v>       0.00000000       0.00000000       0.00000000 </v>
   </varray>
  </structure>
  <varray name="primitive_index" >
   <v type="int" >        1 </v>
   <v type="int" >        9 </v>
  </varray>
 </primitive_cell>
 <kpoints>
  <generation param="Gamma">
   <v type="int" name="divisions">       6        6        6 </v>
   <v name="usershift">      0.00000000       0.00000000       0.00000000 </v>
   <v name="genvec1">      0.16666667       0.00000000      -0.00000000 </v>
   <v name="genvec2">      0.00000000       0.16666667       0.00000000 </v>
   <v name="genvec3">     -0.00000000      -0.00000000       0.16666667 </v>
   <v name="shift">      0.00000000       0.00000000       0.00000000 </v>
  </generation>
  <varray name="kpointlist" >
   <v>       0.00000000       0.00000000       0.00000000 </v>
   <v>       0.16666667       0.00000000       0.00000000 </v>
   <v>       0.33333333       0.00000000       0.00000000 </v>
   <v>       0.50000000       0.00000000       0.00000000 </v>
   <v>       0.16666667       0.16666667       0.00000000 </v>
   <v>       0.33333333       0.16666667       0.00000000 </v>
   <v>       0.50000000       0.16666667       0.00000000 </v>
   <v>      -0.33333333       0.16666667       0.00000000 </v>
   <v>      -0.16666667       0.16666667       0.00000000 </v>
   <v>       0.33333333       0.33333333       0.00000000 </v>
   <v>       0.50000000       0.33333333       0.00000000 </v>
   <v>      -0.33333333       0.33333333       0.00000000 </v>
   <v>       0.50000000       0.50000000       0.00000000 </v>
   <v>       0.50000000       0.33333333       0.16666667 </v>
   <v>      -0.33333333       0.33333333       0.16666667 </v>
   <v>      -0.33333333       0.50000000       0.16666667 </v>
  </varray>
  <varray name="weights" >
   <v>       0.00462963 </v>
   <v>       0.03703704 </v>
   <v>       0.03703704 </v>
   <v>       0.01851852 </v>
   <v>       0.02777778 </v>
   <v>       0.11111111 </v>
   <v>       0.11111111 </v>
   <v>       0.11111111 </v>
   <v>       0.05555556 </v>
   <v>       0.02777778 </v>
   <v>       0.11111111 </v>
   <v>       0.05555556 </v>
   <v>       0.01388889 </v>
   <v>       0.11111111 </v>
   <v>       0.11111111 </v>
   <v>       0.05555556 </v>
  </varray>
 </kpoints>
 <parameters>
  <separator name="general" >
   <i type="string" name="SYSTEM">unknown system</i>
   <i type="logical" name="LCOMPAT"> F  </i>
  </separator>
  <separator name="electronic" >
   <i type="string" name="PREC">accura</i>
   <i name="ENMAX">    600.00000000</i>
   <i name="ENAUG">    391.91400000</i>
   <i name="EDIFF">      0.00000001</i>
   <i type="int" name="IALGO">    68</i>
   <i type="int" name="IWAVPR">    11</i>
   <i type="int" name="NBANDS">    96</i>
   <i type="int" name="NBANDSLOW">    -1</i>
   <i type="int" name="NBANDSHIGH">    -1</i>
   <i name="NELECT">    160.00000000</i>
   <i type="int" name="TURBO">     0</i>
   <i type="int" name="IRESTART">     0</i>
   <i type="int" name="NREBOOT">     0</i>
   <i type="int" name="NMIN">     0</i>
   <i name="EREF">      0.00000000</i>
   <separator name="electronic smearing" >
    <i type="int" name="ISMEAR">     0</i>
    <i name="SIGMA">      0.01000000</i>
    <i name="KSPACING">      0.50000000</i>
    <i type="logical" name="KGAMMA"> T  </i>
    <i type="logical" name="KBLOWUP"> T  </i>
   </separator>
   <separator name="electronic projectors" >
    <i type="logical" name="LREAL"> F  </i>
    <v name="ROPT">      0.00000000      0.00000000</v>
    <i type="int" name="LMAXPAW">  -100</i>
    <i type="int" name="LMAXMIX">     4</i>
    <i type="logical" name="NLSPLINE"> F  </i>
   </separator>
   <separator name="electronic startup" >
    <i type="int" name="ISTART">     0</i>
    <i type="int" name="ICHARG">     2</i>
    <i type="int" name="INIWAV">     1</i>
   </separator>
   <separator name="electronic spin" >
    <i type="int" name="ISPIN">     1</i>
    <i type="logical" name="LNONCOLLINEAR"> F  </i>
    <v name="MAGMOM">      1.00000000      1.00000000      1.00000000      1.00000000      1.00000000      1.00000000      1.00000000      1.00000000      1.00000000      1.00000000      1.00000000      1.00000000      1.00000000      1.00000000      1.00000000      1.00000000</v>
    <i name="NUPDOWN">     -1.00000000</i>
    <i type="logical" name="LSORBIT"> F  </i>
    <v name="SAXIS">      0.00000000      0.00000000      1.00000000</v>
    <i type="logical" name="LSPIRAL"> F  </i>
    <v name="QSPIRAL">      0.00000000      0.00000000      0.00000000</v>
    <i type="logical" name="LZEROZ"> F  </i>
   </separator>
   <separator name="electronic exchange-correlation" >
    <i type="logical" name="LASPH"> F  </i>
    <i type="logical" name="LMETAGGA"> F  </i>
   </separator>
   <separator name="electronic convergence" >
    <i type="int" name="NELM">   500</i>
    <i type="int" name="NELMDL">     0</i>
    <i type="int" name="NELMIN">     5</i>
    <i name="ENINI">    600.00000000</i>
    <separator name="electronic convergence detail" >
     <i type="logical" name="LDIAG"> T  </i>
     <i type="logical" name="LSUBROT"> F  </i>
     <i name="WEIMIN">      0.00100000</i>
     <i name="EBREAK">      0.00000000</i>
     <i name="DEPER">      0.30000000</i>
     <i type="int" name="NRMM">     4</i>
     <i name="TIME">      0.40000000</i>
    </separator>
   </separator>
   <separator name="electronic mixer" >
    <i name="AMIX">      0.40000000</i>
    <i name="BMIX">      1.00000000</i>
    <i name="AMIN">      0.10000000</i>
    <i name="AMIX_MAG">      1.60000000</i>
    <i name="BMIX_MAG">      1.00000000</i>
    <separator name="electronic mixer details" >
     <i type="int" name="IMIX">     4</i>
     <i type="logical" name="MIXFIRST"> F  </i>
     <i type="int" name="MAXMIX">   -45</i>
     <i name="WC">    100.00000000</i>
     <i type="int" name="INIMIX">     1</i>
     <i type="int" name="MIXPRE">     1</i>
     <i type="int" name="MREMOVE">     5</i>
    </separator>
   </separator>
   <separator name="electronic dipolcorrection" >
    <i type="logical" name="LDIPOL"> F  </i>
    <i type="logical" name="LMONO"> F  </i>
    <i type="int" name="IDIPOL">     0</i>
    <i name="EPSILON">      1.00000000</i>
    <v name="DIPOL">   -100.00000000   -100.00000000   -100.00000000</v>
    <i name="EFIELD">      0.00000000</i>
   </separator>
  </separator>
  <separator name="grids" >
   <i type="int" name="NGX">    80</i>
   <i type="int" name="NGY">    80</i>
   <i type="int" name="NGZ">    80</i>
   <i type="int" name="NGXF">   160</i>
   <i type="int" name="NGYF">   160</i>
   <i type="int" name="NGZF">   160</i>
   <i type="logical" name="ADDGRID"> T  </i>
  </separator>
  <separator name="ionic" >
   <i type="int" name="NSW">   200</i>
   <i type="int" name="IBRION">     2</i>
   <i type="int" name="MDALGO">     0</i>
   <i type="int" name="ISIF">     7</i>
   <i name="PSTRESS">      0.00000000</i>
   <i name="EDIFFG">     -0.00000010</i>
   <i type="int" name="NFREE">     1</i>
   <i name="POTIM">      0.50000000</i>
   <i name="SMASS">     -3.00000000</i>
   <i name="SCALEE">      1.00000000</i>
  </separator>
  <separator name="ionic md" >
   <i name="TEBEG">      0.00010000</i>
   <i name="TEEND">      0.00010000</i>
   <i type="int" name="NBLOCK">     1</i>
   <i type="int" name="KBLOCK">   200</i>
   <i type="int" name="NPACO">   256</i>
   <i name="APACO">     10.00000000</i>
  </separator>
  <separator name="symmetry" >
   <i type="int" name="ISYM">     2</i>
   <i name="SYMPREC">      0.00001000</i>
  </separator>
  <separator name="dos" >
   <i type="int" name="LORBIT">    11</i>
   <v name="RWIGS">     -1.00000000     -1.00000000</v>
   <i type="int" name="NEDOS">  1000</i>
   <i name="EMIN">     10.00000000</i>
   <i name="EMAX">    -10.00000000</i>
   <i name="EFERMI">      0.00000000</i>
  </separator>
  <separator name="writing" >
   <i type="int" name="NWRITE">     2</i>
   <i type="logical" name="LWAVE"> T  </i>
   <i type="logical" name="LDOWNSAMPLE"> F  </i>
   <i type="logical" name="LCHARG"> T  </i>
   <i type="logical" name="LPARD"> F  </i>
   <i type="logical" name="LVTOT"> F  </i>
   <i type="logical" name="LVHAR"> F  </i>
   <i type="logical" name="LELF"> F  </i>
   <i type="logical" name="LOPTICS"> F  </i>
   <v name="STM">      0.00000000      0.00000000      0.00000000      0.00000000      0.00000000      0.00000000      0.00000000</v>
  </separator>
  <separator name="performance" >
   <i type="int" name="NPAR">     8</i>
   <i type="int" name="NSIM">     4</i>
   <i type="int" name="NBLK">    -1</i>
   <i type="logical" name="LPLANE"> T  </i>
   <i type="logical" name="LSCALAPACK"> T  </i>
   <i type="logical" name="LSCAAWARE"> F  </i>
   <i type="logical" name="LSCALU"> F  </i>
   <i type="logical" name="LASYNC"> F  </i>
   <i type="logical" name="LORBITALREAL"> F  </i>
  </separator>
  <separator name="miscellaneous" >
   <i type="int" name="IDIOT">     3</i>
   <i type="int" name="PHON_NSTRUCT">    -1</i>
   <i type="logical" name="LMUSIC"> F  </i>
   <v name="POMASS">    207.20000000    127.60000000</v>
   <v name="DARWINR">      0.00000000      0.00000000</v>
   <v name="DARWINV">      1.00000000      1.00000000</v>
   <i type="logical" name="LCORR"> T  </i>
  </separator>
  <i type="logical" name="GGA_COMPAT"> T  </i>
  <i type="logical" name="LBERRY"> F  </i>
  <i type="int" name="ICORELEVEL">     1</i>
  <i type="int" name="CLNT">     1</i>
  <i type="int" name="CLN">     1</i>
  <i type="int" name="CLL">     0</i>
  <i name="CLZ">      0.00000000</i>
  <i type="logical" name="LDAU"> F  </i>
  <i type="int" name="I_CONSTRAINED_M">     0</i>
  <separator name="electronic exchange-correlation" >
   <i type="string" name="GGA">PS</i>
   <i type="int" name="VOSKOWN">     0</i>
   <i type="logical" name="LHFCALC"> F  </i>
   <i type="string" name="PRECFOCK"></i>
   <i type="logical" name="LSYMGRAD"> F  </i>
   <i type="logical" name="LHFONE"> F  </i>
   <i type="logical" name="LRHFCALC"> F  </i>
   <i type="logical" name="LTHOMAS"> F  </i>
   <i type="logical" name="LMODELHF"> F  </i>
   <i type="logical" name="LFOCKACE"> F  </i>
   <i name="ENCUT4O">     -1.00000000</i>
   <i type="int" name="EXXOEP">     0</i>
   <i type="int" name="FOURORBIT">     0</i>
   <i name="AEXX">      0.00000000</i>
   <i name="HFALPHA">      0.00000000</i>
   <i name="MCALPHA">      0.00000000</i>
   <i name="ALDAX">      1.00000000</i>
   <i name="AGGAX">      1.00000000</i>
   <i name="ALDAC">      1.00000000</i>
   <i name="AGGAC">      1.00000000</i>
   <i type="int" name="NKREDX">     1</i>
   <i type="int" name="NKREDY">     1</i>
   <i type="int" name="NKREDZ">     1</i>
   <i type="logical" name="SHIFTRED"> F  </i>
   <i type="logical" name="ODDONLY"> F  </i>
   <i type="logical" name="EVENONLY"> F  </i>
   <i type="int" name="LMAXFOCK">     0</i>
   <i type="int" name="NMAXFOCKAE">     0</i>
   <i type="logical" name="LFOCKAEDFT"> F  </i>
   <i name="HFSCREEN">      0.00000000</i>
   <i name="HFSCREENC">      0.00000000</i>
   <i type="int" name="NBANDSGWLOW">     0</i>
  </separator>
  <separator name="vdW DFT" >
   <i type="logical" name="LUSE_VDW"> F  </i>
   <i name="Zab_VDW">     -0.84910000</i>
   <i name="PARAM1">      0.12340000</i>
   <i name="PARAM2">      1.00000000</i>
   <i name="PARAM3">      0.00000000</i>
  </separator>
  <separator name="model GW" >
   <i type="int" name="MODEL_GW">     0</i>
   <i name="MODEL_EPS0">     20.07194521</i>
   <i name="MODEL_ALPHA">      1.00000000</i>
  </separator>
  <separator name="linear response parameters" >
   <i type="logical" name="LEPSILON"> F  </i>
   <i type="logical" name="LRPA"> F  </i>
   <i type="logical" name="LNABLA"> F  </i>
   <i type="logical" name="LVEL"> F  </i>
   <i name="CSHIFT">      0.10000000</i>
   <i name="OMEGAMAX">     -1.00000000</i>
   <i name="DEG_THRESHOLD">      0.00200000</i>
   <i name="RTIME">     -0.10000000</i>
   <i name="WPLASMAI">      0.00000000</i>
   <v name="DFIELD">      0.00000000      0.00000000      0.00000000</v>
   <v name="WPLASMA">      0.00000000      0.00000000      0.00000000      0.00000000      0.00000000      0.00000000      0.00000000      0.00000000      0.00000000</v>
  </separator>
  <separator name="orbital magnetization" >
   <i type="logical" name="NUCIND"> F  </i>
   <v name="MAGPOS">      0.00000000      0.00000000      0.00000000</v>
   <i type="logical" name="LNICSALL"> T  </i>
   <i type="logical" name="ORBITALMAG"> F  </i>
   <i type="logical" name="LMAGBLOCH"> F  </i>
   <i type="logical" name="LCHIMAG"> F  </i>
   <i type="logical" name="LGAUGE"> T  </i>
   <i type="int" name="MAGATOM">     0</i>
   <v name="MAGDIPOL">      0.00000000      0.00000000      0.00000000</v>
   <v name="AVECCONST">      0.00000000      0.00000000      0.00000000</v>
  </separator>
  <separator name="response functions" >
   <i type="logical" name="LFINITE_TEMPERATURE"> F  </i>
   <i type="logical" name="LADDER"> F  </i>
   <i type="logical" name="LRPAFORCE"> F  </i>
   <i type="logical" name="LFXC"> F  </i>
   <i type="logical" name="LHARTREE"> T  </i>
   <i type="int" name="IBSE">     0</i>
   <v type="int" name="KPOINT">    -1     0     0     0</v>
   <i type="logical" name="LTCTC"> F  </i>
   <i type="logical" name="LTCTE"> F  </i>
   <i type="logical" name="LTETE"> F  </i>
   <i type="logical" name="LTRIPLET"> F  </i>
   <i type="logical" name="LFXCEPS"> F  </i>
   <i type="logical" name="LFXHEG"> F  </i>
   <i type="int" name="NATURALO">     2</i>
   <i type="logical" name="LHOLEGF"> F  </i>
   <i type="logical" name="L2ORDER"> F  </i>
   <i type="logical" name="LDMP1"> F  </i>
   <i type="logical" name="LMP2LT"> F  </i>
   <i type="logical" name="LSMP2LT"> F  </i>
   <i type="logical" name="LGWLF"> F  </i>
   <i name="ENCUTGW">     -2.00000000</i>
   <i name="ENCUTGWSOFT">     -2.00000000</i>
   <i name="ENCUTLF">     -1.00000000</i>
   <i type="logical" name="LESF_SPLINES"> F  </i>
   <i type="int" name="LMAXMP2">    -1</i>
   <i name="SCISSOR">      0.00000000</i>
   <i type="int" name="NOMEGA">     0</i>
   <i type="int" name="NOMEGAR">     0</i>
   <i type="int" name="NBANDSGW">    -1</i>
   <i type="int" name="NBANDSO">    -1</i>
   <i type="int" name="NBANDSV">    -1</i>
   <i type="int" name="NELMGW">     1</i>
   <i type="int" name="NELMHF">     1</i>
   <i type="int" name="DIM">     3</i>
   <i type="int" name="IESPILON">     4</i>
   <i type="int" name="ANTIRES">     0</i>
   <i name="OMEGAMAX">    -30.00000000</i>
   <i name="OMEGAMIN">    -30.00000000</i>
   <i name="OMEGATL">   -200.00000000</i>
   <i type="int" name="OMEGAGRID">     0</i>
   <i name="CSHIFT">     -0.10000000</i>
   <i type="logical" name="LSELFENERGY"> F  </i>
   <i type="logical" name="LSPECTRAL"> F  </i>
   <i type="logical" name="LSPECTRALGW"> F  </i>
   <i type="logical" name="LSINGLES"> F  </i>
   <i type="logical" name="LFERMIGW"> F  </i>
   <i type="logical" name="ODDONLYGW"> F  </i>
   <i type="logical" name="EVENONLYGW"> F  </i>
   <i type="int" name="NKREDLFX">     1</i>
   <i type="int" name="NKREDLFY">     1</i>
   <i type="int" name="NKREDLFZ">     1</i>
   <i type="int" name="MAXMEM">  2800</i>
   <i type="int" name="TELESCOPE">     0</i>
   <i type="int" name="NTAUPAR">    -1</i>
   <i type="int" name="NOMEGAPAR">    -1</i>
   <i name="DAMP_NEWTON">      0.80000001</i>
   <i name="LAMBDA">      1.00000000</i>
  </separator>
  <separator name="External order field" >
   <i name="OFIELD_KAPPA">      0.00000000</i>
   <v name="OFIELD_K">      0.00000000      0.00000000      0.00000000</v>
   <i name="OFIELD_Q6_NEAR">      0.00000000</i>
   <i name="OFIELD_Q6_FAR">      0.00000000</i>
   <i name="OFIELD_A">      0.00000000</i>
  </separator>
  <separator name="optional k-points parameters" >
   <i type="int" name="KPOINTS_OPT_MODE">     1</i>
   <i type="logical" name="LKPOINTS_OPT"> F  </i>
  </separator>
 </parameters>
 <atominfo>
  <atoms>      16 </atoms>
  <types>       2 </types>
  <array name="atoms" >
   <dimension dim="1">ion</dimension>
   <field type="string">element</field>
   <field type="int">atomtype</field>
   <set>
    <rc><c>Pb</c><c>   1</c></rc>
    <rc><c>Pb</c><c>   1</c></rc>
    <rc><c>Pb</c><c>   1</c></rc>
    <rc><c>Pb</c><c>   1</c></rc>
    <rc><c>Pb</c><c>   1</c></rc>
    <rc><c>Pb</c><c>   1</c></rc>
    <rc><c>Pb</c><c>   1</c></rc>
    <rc><c>Pb</c><c>   1</c></rc>
    <rc><c>Te</c><c>   2</c></rc>
    <rc><c>Te</c><c>   2</c></rc>
    <rc><c>Te</c><c>   2</c></rc>
    <rc><c>Te</c><c>   2</c></rc>
    <rc><c>Te</c><c>   2</c></rc>
    <rc><c>Te</c><c>   2</c></rc>
    <rc><c>Te</c><c>   2</c></rc>
    <rc><c>Te</c><c>   2</c></rc>
   </set>
  </array>
  <array name="atomtypes" >
   <dimension dim="1">type</dimension>
   <field type="int">atomspertype</field>
   <field type="string">element</field>
   <field>mass</field>
   <field>valence</field>
   <field type="string">pseudopotential</field>
   <set>
    <rc><c>   8</c><c>Pb</c><c>    207.20000000</c><c>     14.00000000</c><c>  PAW_PBE Pb_d 06Sep2000                </c></rc>
    <rc><c>   8</c><c>Te</c><c>    127.60000000</c><c>      6.00000000</c><c>  PAW_PBE Te 08Apr2002                  </c></rc>
   </set>
  </array>
 </atominfo>
 <structure name="initialpos" >
  <crystal>
   <varray name="basis" >
    <v>       0.00000000       6.44430470       6.44430470 </v>
    <v>       6.44430470       0.00000000       6.44430470 </v>
    <v>       6.44430470       6.44430470       0.00000000 </v>
   </varray>
   <i name="volume">    535.25187240 </i>
   <varray name="rec_basis" >
    <v>      -0.07758789       0.07758789       0.07758789 </v>
    <v>       0.07758789      -0.07758789       0.07758789 </v>
    <v>       0.07758789       0.07758789      -0.07758789 </v>
   </varray>
  </crystal>
  <varray name="positions" >
   <v>       0.25000000       0.25000000       0.25000000 </v>
   <v>       0.75000000       0.25000000       0.25000000 </v>
   <v>       0.25000000       0.75000000       0.25000000 </v>
   <v>       0.75000000       0.75000000       0.25000000 </v>
   <v>       0.25000000       0.25000000       0.75000000 </v>
   <v>       0.75000000       0.25000000       0.75000000 </v>
   <v>       0.25000000       0.75000000       0.75000000 </v>
   <v>       0.75000000       0.75000000       0.75000000 </v>
   <v>       0.00000000       0.00000000       0.00000000 </v>
   <v>       0.50000000       0.00000000       0.00000000 </v>
   <v>       0.00000000       0.50000000       0.00000000 </v>
   <v>       0.50000000       0.50000000       0.00000000 </v>
   <v>       0.00000000       0.00000000       0.50000000 </v>
   <v>       0.50000000       0.00000000       0.50000000 </v>
   <v>       0.00000000       0.50000000       0.50000000 </v>
   <v>       0.50000000       0.50000000       0.50000000 </v>
  </varray>
 </structure>
 <calculation>
  <scstep>
   <time name="dav">    1.76    1.76</time>
   <time name="total">    2.06    2.15</time>
   <energy>
    <i name="alphaZ">    290.60389976 </i>
    <i name="ewald"> -11143.56050388 </i>
    <i name="hartreedc">  -4024.08968959 </i>
    <i name="XCdc">     91.56847891 </i>
    <i name="pawpsdc">  13132.28373248 </i>
    <i name="pawaedc"> -12699.49664494 </i>
    <i name="eentropy">     -0.00054347 </i>
    <i name="bandstr">   1148.09060106 </i>
    <i name="atom">  15084.07529148 </i>
    <i name="e_fr_energy">   1879.47462181 </i>
    <i name="e_wo_entrp">   1879.47516528 </i>
    <i name="e_0_energy">   1879.47489354 </i>
   </energy>
  </scstep>
  <scstep>
   <time name="dav">    1.72    1.73</time>
   <time name="total">    1.72    1.73</time>
   <energy>
    <i name="e_fr_energy">    212.19075748 </i>
    <i name="e_wo_entrp">    212.19089744 </i>
    <i name="e_0_energy">    212.19082746 </i>
   </energy>
  </scstep>
  <scstep>
   <time name="dav">    1.97    1.99</time>
   <time name="total">    1.98    1.99</time>
   <energy>
    <i name="e_fr_energy">    -46.38200359 </i>
    <i name="e_wo_entrp">    -46.38200359 </i>
    <i name="e_0_energy">    -46.38200359 </i>
   </energy>
  </scstep>
  <scstep>
   <time name="dav">    2.01    2.03</time>
   <time name="total">    2.01    2.03</time>
   <energy>
    <i name="e_fr_energy">    -66.04302008 </i>
    <i name="e_wo_entrp">    -66.04302008 </i>
    <i name="e_0_energy">    -66.04302008 </i>
   </energy>
  </scstep>
  <scstep>
   <time name="dav">    2.01    2.02</time>
   <time name="total">    2.63    2.64</time>
   <energy>
    <i name="e_fr_energy">    -66.97638160 </i>
    <i name="e_wo_entrp">    -66.97638160 </i>
    <i name="e_0_energy">    -66.97638160 </i>
   </energy>
  </scstep>
  <scstep>
   <time name="diag">    0.47    0.47</time>
   <time name="diis">    1.57    1.57</time>
   <time name="orth">    0.04    0.04</time>
   <time name="total">    2.97    2.99</time>
   <energy>
    <i name="e_fr_energy">    -66.10586849 </i>
    <i name="e_wo_entrp">    -66.10586849 </i>
    <i name="e_0_energy">    -66.10586849 </i>
   </energy>
  </scstep>
  <scstep>
   <time name="diag">    0.46    0.46</time>
   <time name="diis">    1.61    1.61</time>
   <time name="orth">    0.04    0.04</time>
   <time name="total">    3.03    3.03</time>
   <energy>
    <i name="e_fr_energy">    -66.10869683 </i>
    <i name="e_wo_entrp">    -66.10869683 </i>
    <i name="e_0_energy">    -66.10869683 </i>
   </energy>
  </scstep>
  <scstep>
   <time name="diag">    0.46    0.46</time>
   <time name="diis">    1.59    1.59</time>
   <time name="orth">    0.04    0.04</time>
   <time name="total">    2.98    3.00</time>
   <energy>
    <i name="e_fr_energy">    -66.08717755 </i>
    <i name="e_wo_entrp">    -66.08717755 </i>
    <i name="e_0_energy">    -66.08717755 </i>
   </energy>
  </scstep>
  <scstep>
   <time name="diag">    0.46    0.46</time>
   <time name="diis">    1.73    1.73</time>
   <time name="orth">    0.04    0.04</time>
   <time name="total">    3.12    3.14</time>
   <energy>
    <i name="e_fr_energy">    -66.07408577 </i>
    <i name="e_wo_entrp">    -66.07408577 </i>
    <i name="e_0_energy">    -66.07408577 </i>
   </energy>
  </scstep>
  <scstep>
   <time name="diag">    0.46    0.46</time>
   <time name="diis">    1.85    1.85</time>
   <time name="orth">    0.04    0.04</time>
   <time name="total">    3.24    3.26</time>
   <energy>
    <i name="e_fr_energy">    -66.07706910 </i>
    <i name="e_wo_entrp">    -66.07706910 </i>
    <i name="e_0_energy">    -66.07706910 </i>
   </energy>
  </scstep>
  <scstep>
   <time name="diag">    0.46    0.46</time>
   <time name="diis">    2.13    2.13</time>
   <time name="orth">    0.04    0.04</time>
   <time name="total">    3.54    3.54</time>
   <energy>
    <i name="e_fr_energy">    -66.07695443 </i>
    <i name="e_wo_entrp">    -66.07695443 </i>
    <i name="e_0_energy">    -66.07695443 </i>
   </energy>
  </scstep>
  <scstep>
   <time name="diag">    0.46    0.46</time>
   <time name="diis">    1.62    1.62</time>
   <time name="orth">    0.04    0.04</time>
   <time name="total">    3.01    3.03</time>
   <energy>
    <i name="e_fr_energy">    -66.07864339 </i>
    <i name="e_wo_entrp">    -66.07864339 </i>
    <i name="e_0_energy">    -66.07864339 </i>
   </energy>
  </scstep>
  <scstep>
   <time name="diag">    0.46    0.46</time>
   <time name="diis">    2.01    2.01</time>
   <time name="orth">    0.04    0.04</time>
   <time name="total">    3.41    3.43</time>
   <energy>
    <i name="e_fr_energy">    -66.07520269 </i>
    <i name="e_wo_entrp">    -66.07520269 </i>
    <i name="e_0_energy">    -66.07520269 </i>
   </energy>
  </scstep>
  <scstep>
   <time name="diag">    0.46    0.46</time>
   <time name="diis">    1.57    1.57</time>
   <time name="orth">    0.04    0.04</time>
   <time name="total">    2.96    2.98</time>
   <energy>
    <i name="e_fr_energy">    -66.07525492 </i>
    <i name="e_wo_entrp">    -66.07525492 </i>
    <i name="e_0_energy">    -66.07525492 </i>
   </energy>
  </scstep>
  <scstep>
   <time name="diag">    0.46    0.46</time>
   <time name="diis">    2.04    2.04</time>
   <time name="orth">    0.05    0.05</time>
   <time name="total">    3.46    3.48</time>
   <energy>
    <i name="e_fr_energy">    -66.07529379 </i>
    <i name="e_wo_entrp">    -66.07529379 </i>
    <i name="e_0_energy">    -66.07529379 </i>
   </energy>
  </scstep>
  <scstep>
   <time name="diag">    0.46    0.46</time>
   <time name="diis">    2.22    2.23</time>
   <time name="orth">    0.04    0.04</time>
   <time name="total">    3.62    3.64</time>
   <energy>
    <i name="e_fr_energy">    -66.07528675 </i>
    <i name="e_wo_entrp">    -66.07528675 </i>
    <i name="e_0_energy">    -66.07528675 </i>
   </energy>
  </scstep>
  <scstep>
   <time name="diag">    0.46    0.46</time>
   <time name="diis">    1.92    1.92</time>
   <time name="orth">    0.04    0.04</time>
   <time name="total">    3.31    3.33</time>
   <energy>
    <i name="e_fr_energy">    -66.07539629 </i>
    <i name="e_wo_entrp">    -66.07539629 </i>
    <i name="e_0_energy">    -66.07539629 </i>
   </energy>
  </scstep>
  <scstep>
   <time name="diag">    0.46    0.46</time>
   <time name="diis">    2.00    2.00</time>
   <time name="orth">    0.04    0.04</time>
   <time name="total">    3.40    3.42</time>
   <energy>
    <i name="e_fr_energy">    -66.07524789 </i>
    <i name="e_wo_entrp">    -66.07524789 </i>
    <i name="e_0_energy">    -66.07524789 </i>
   </energy>
  </scstep>
  <scstep>
   <time name="diag">    0.46    0.46</time>
   <time name="diis">    1.67    1.68</time>
   <time name="orth">    0.04    0.04</time>
   <time name="total">    3.07    3.09</time>
   <energy>
    <i name="e_fr_energy">    -66.07524024 </i>
    <i name="e_wo_entrp">    -66.07524024 </i>
    <i name="e_0_energy">    -66.07524024 </i>
   </energy>
  </scstep>
  <scstep>
   <time name="diag">    0.46    0.46</time>
   <time name="diis">    1.59    1.59</time>
   <time name="orth">    0.04    0.04</time>
   <time name="total">    2.99    3.01</time>
   <energy>
    <i name="e_fr_energy">    -66.07523954 </i>
    <i name="e_wo_entrp">    -66.07523954 </i>
    <i name="e_0_energy">    -66.07523954 </i>
   </energy>
  </scstep>
  <scstep>
   <time name="diag">    0.50    0.50</time>
   <time name="diis">    1.72    1.72</time>
   <time name="orth">    0.05    0.05</time>
   <time name="total">    3.16    3.18</time>
   <energy>
    <i name="e_fr_energy">    -66.07524066 </i>
    <i name="e_wo_entrp">    -66.07524066 </i>
    <i name="e_0_energy">    -66.07524066 </i>
   </energy>
  </scstep>
  <scstep>
   <time name="diag">    0.46    0.46</time>
   <time name="diis">    1.80    1.80</time>
   <time name="orth">    0.04    0.04</time>
   <time name="total">    3.21    3.22</time>
   <energy>
    <i name="e_fr_energy">    -66.07524126 </i>
    <i name="e_wo_entrp">    -66.07524126 </i>
    <i name="e_0_energy">    -66.07524126 </i>
   </energy>
  </scstep>
  <scstep>
   <time name="diag">    0.46    0.46</time>
   <time name="diis">    1.87    1.87</time>
   <time name="orth">    0.04    0.04</time>
   <time name="total">    3.27    3.29</time>
   <energy>
    <i name="e_fr_energy">    -66.07524162 </i>
    <i name="e_wo_entrp">    -66.07524162 </i>
    <i name="e_0_energy">    -66.07524162 </i>
   </energy>
  </scstep>
  <scstep>
   <time name="diag">    0.46    0.46</time>
   <time name="diis">    1.33    1.34</time>
   <time name="orth">    0.04    0.04</time>
   <time name="total">    2.73    2.75</time>
   <energy>
    <i name="e_fr_energy">    -66.07524128 </i>
    <i name="e_wo_entrp">    -66.07524128 </i>
    <i name="e_0_energy">    -66.07524128 </i>
   </energy>
  </scstep>
  <scstep>
   <time name="diag">    0.46    0.46</time>
   <time name="diis">    1.56    1.56</time>
   <time name="orth">    0.04    0.04</time>
   <time name="total">    2.96    2.98</time>
   <energy>
    <i name="e_fr_energy">    -66.07524134 </i>
    <i name="e_wo_entrp">    -66.07524134 </i>
    <i name="e_0_energy">    -66.07524134 </i>
   </energy>
  </scstep>
  <scstep>
   <time name="diag">    0.46    0.46</time>
   <time name="diis">    0.97    0.97</time>
   <time name="orth">    0.04    0.04</time>
   <time name="total">    1.83    1.85</time>
   <energy>
    <i name="alphaZ">    290.60389976 </i>
    <i name="ewald"> -11143.56050388 </i>
    <i name="hartreedc">  -3991.69989188 </i>
    <i name="XCdc">     92.05041840 </i>
    <i name="pawpsdc">  14942.52013571 </i>
    <i name="pawaedc"> -14506.71492904 </i>
    <i name="eentropy">     -0.00000000 </i>
    <i name="bandstr">   -833.34966190 </i>
    <i name="atom">  15084.07529148 </i>
    <i name="e_fr_energy">    -66.07524135 </i>
    <i name="e_wo_entrp">    -66.07524135 </i>
    <i name="e_0_energy">    -66.07524135 </i>
   </energy>
  </scstep>
  <structure>
   <crystal>
    <varray name="basis" >
     <v>       0.00000000       6.44430470       6.44430470 </v>
     <v>       6.44430470       0.00000000       6.44430470 </v>
     <v>       6.44430470       6.44430470       0.00000000 </v>
    </varray>
    <i name="volume">    535.25187240 </i>
    <varray name="rec_basis" >
     <v>      -0.07758789       0.07758789       0.07758789 </v>
     <v>       0.07758789      -0.07758789       0.07758789 </v>
     <v>       0.07758789       0.07758789      -0.07758789 </v>
    </varray>
   </crystal>
   <varray name="positions" >
    <v>       0.25000000       0.25000000       0.25000000 </v>
    <v>       0.75000000       0.25000000       0.25000000 </v>
    <v>       0.25000000       0.75000000       0.25000000 </v>
    <v>       0.75000000       0.75000000       0.25000000 </v>
    <v>       0.25000000       0.25000000       0.75000000 </v>
    <v>       0.75000000       0.25000000       0.75000000 </v>
    <v>       0.25000000       0.75000000       0.75000000 </v>
    <v>       0.75000000       0.75000000       0.75000000 </v>
    <v>       0.00000000       0.00000000       0.00000000 </v>
    <v>       0.50000000       0.00000000       0.00000000 </v>
    <v>       0.00000000       0.50000000       0.00000000 </v>
    <v>       0.50000000       0.50000000       0.00000000 </v>
    <v>       0.00000000       0.00000000       0.50000000 </v>
    <v>       0.50000000       0.00000000       0.50000000 </v>
    <v>       0.00000000       0.50000000       0.50000000 </v>
    <v>       0.50000000       0.50000000       0.50000000 </v>
   </varray>
  </structure>
  <varray name="forces" >
   <v>      -0.00000000       0.00000000       0.00000000 </v>
   <v>      -0.00000000       0.00000000      -0.00000000 </v>
   <v>      -0.00000000       0.00000000       0.00000000 </v>
   <v>      -0.00000000      -0.00000000       0.00000000 </v>
   <v>      -0.00000000      -0.00000000       0.00000000 </v>
   <v>       0.00000000      -0.00000000      -0.00000000 </v>
   <v>       0.00000000       0.00000000       0.00000000 </v>
   <v>      -0.00000000      -0.00000000      -0.00000000 </v>
   <v>       0.00000000      -0.00000000      -0.00000000 </v>
   <v>       0.00000000      -0.00000000      -0.00000000 </v>
   <v>       0.00000000      -0.00000000      -0.00000000 </v>
   <v>       0.00000000       0.00000000      -0.00000000 </v>
   <v>       0.00000000      -0.00000000      -0.00000000 </v>
   <v>       0.00000000      -0.00000000      -0.00000000 </v>
   <v>       0.00000000      -0.00000000      -0.00000000 </v>
   <v>       0.00000000      -0.00000000      -0.00000000 </v>
  </varray>
  <varray name="stress" >
   <v>      -0.27546084       0.00000000       0.00000000 </v>
   <v>       0.00000000      -0.27546084      -0.00000000 </v>
   <v>       0.00000000       0.00000000      -0.27546084 </v>
  </varray>
  <energy>
   <i name="e_fr_energy">    -66.07524135 </i>
   <i name="e_wo_entrp">    -66.07524135 </i>
   <i name="e_0_energy">    -66.07524135 </i>
  </energy>
  <time name="totalsc">   90.95   91.69</time>
 </calculation>
 <calculation>
  <scstep>
   <time name="dav">    2.08    2.08</time>
   <time name="total">    3.02    3.02</time>
   <energy>
    <i name="alphaZ">    290.84593714 </i>
    <i name="ewald"> -11146.65338472 </i>
    <i name="hartreedc">  -3992.80798949 </i>
    <i name="XCdc">     92.17254882 </i>
    <i name="pawpsdc">  14942.59392827 </i>
    <i name="pawaedc"> -14506.78911992 </i>
    <i name="eentropy">     -0.00000000 </i>
    <i name="bandstr">   -829.51347094 </i>
    <i name="atom">  15084.07529148 </i>
    <i name="e_fr_energy">    -66.07625938 </i>
    <i name="e_wo_entrp">    -66.07625938 </i>
    <i name="e_0_energy">    -66.07625938 </i>
   </energy>
  </scstep>
  <scstep>
   <time name="diag">    0.46    0.46</time>
   <time name="diis">    1.58    1.58</time>
   <time name="orth">    0.04    0.04</time>
   <time name="total">    2.98    2.99</time>
   <energy>
    <i name="e_fr_energy">    -66.07539220 </i>
    <i name="e_wo_entrp">    -66.07539220 </i>
    <i name="e_0_energy">    -66.07539220 </i>
   </energy>
  </scstep>
  <scstep>
   <time name="diag">    0.46    0.46</time>
   <time name="diis">    1.52    1.52</time>
   <time name="orth">    0.04    0.04</time>
   <time name="total">    2.92    2.93</time>
   <energy>
    <i name="e_fr_energy">    -66.07523934 </i>
    <i name="e_wo_entrp">    -66.07523934 </i>
    <i name="e_0_energy">    -66.07523934 </i>
   </energy>
  </scstep>
  <scstep>
   <time name="diag">    0.46    0.46</time>
   <time name="diis">    1.99    1.99</time>
   <time name="orth">    0.04    0.04</time>
   <time name="total">    3.39    3.41</time>
   <energy>
    <i name="e_fr_energy">    -66.07525727 </i>
    <i name="e_wo_entrp">    -66.07525727 </i>
    <i name="e_0_energy">    -66.07525727 </i>
   </energy>
  </scstep>
  <scstep>
   <time name="diag">    0.46    0.46</time>
   <time name="diis">    1.68    1.68</time>
   <time name="orth">    0.04    0.04</time>
   <time name="total">    3.08    3.10</time>
   <energy>
    <i name="e_fr_energy">    -66.07525851 </i>
    <i name="e_wo_entrp">    -66.07525851 </i>
    <i name="e_0_energy">    -66.07525851 </i>
   </energy>
  </scstep>
  <scstep>
   <time name="diag">    0.48    0.48</time>
   <time name="diis">    2.07    2.08</time>
   <time name="orth">    0.04    0.04</time>
   <time name="total">    3.49    3.51</time>
   <energy>
    <i name="e_fr_energy">    -66.07525943 </i>
    <i name="e_wo_entrp">    -66.07525943 </i>
    <i name="e_0_energy">    -66.07525943 </i>
   </energy>
  </scstep>
  <scstep>
   <time name="diag">    0.46    0.46</time>
   <time name="diis">    1.86    1.86</time>
   <time name="orth">    0.04    0.04</time>
   <time name="total">    3.25    3.27</time>
   <energy>
    <i name="e_fr_energy">    -66.07526945 </i>
    <i name="e_wo_entrp">    -66.07526945 </i>
    <i name="e_0_energy">    -66.07526945 </i>
   </energy>
  </scstep>
  <scstep>
   <time name="diag">    0.46    0.46</time>
   <time name="diis">    1.53    1.53</time>
   <time name="orth">    0.04    0.04</time>
   <time name="total">    2.92    2.94</time>
   <energy>
    <i name="e_fr_energy">    -66.07526664 </i>
    <i name="e_wo_entrp">    -66.07526664 </i>
    <i name="e_0_energy">    -66.07526664 </i>
   </energy>
  </scstep>
  <scstep>
   <time name="diag">    0.46    0.46</time>
   <time name="diis">    1.52    1.52</time>
   <time name="orth">    0.04    0.04</time>
   <time name="total">    2.92    2.94</time>
   <energy>
    <i name="e_fr_energy">    -66.07526350 </i>
    <i name="e_wo_entrp">    -66.07526350 </i>
    <i name="e_0_energy">    -66.07526350 </i>
   </energy>
  </scstep>
  <scstep>
   <time name="diag">    0.46    0.46</time>
   <time name="diis">    1.72    1.72</time>
   <time name="orth">    0.04    0.04</time>
   <time name="total">    3.13    3.14</time>
   <energy>
    <i name="e_fr_energy">    -66.07526363 </i>
    <i name="e_wo_entrp">    -66.07526363 </i>
    <i name="e_0_energy">    -66.07526363 </i>
   </energy>
  </scstep>
  <scstep>
   <time name="diag">    0.46    0.46</time>
   <time name="diis">    1.39    1.40</time>
   <time name="orth">    0.04    0.04</time>
   <time name="total">    2.79    2.81</time>
   <energy>
    <i name="e_fr_energy">    -66.07526364 </i>
    <i name="e_wo_entrp">    -66.07526364 </i>
    <i name="e_0_energy">    -66.07526364 </i>
   </energy>
  </scstep>
  <scstep>
   <time name="diag">    0.46    0.46</time>
   <time name="diis">    1.56    1.56</time>
   <time name="orth">    0.04    0.04</time>
   <time name="total">    2.97    2.97</time>
   <energy>
    <i name="e_fr_energy">    -66.07526327 </i>
    <i name="e_wo_entrp">    -66.07526327 </i>
    <i name="e_0_energy">    -66.07526327 </i>
   </energy>
  </scstep>
  <scstep>
   <time name="diag">    0.50    0.50</time>
   <time name="diis">    1.60    1.60</time>
   <time name="orth">    0.04    0.04</time>
   <time name="total">    3.04    3.06</time>
   <energy>
    <i name="e_fr_energy">    -66.07526312 </i>
    <i name="e_wo_entrp">    -66.07526312 </i>
    <i name="e_0_energy">    -66.07526312 </i>
   </energy>
  </scstep>
  <scstep>
   <time name="diag">    0.46    0.46</time>
   <time name="diis">    1.90    1.90</time>
   <time name="orth">    0.04    0.04</time>
   <time name="total">    3.31    3.32</time>
   <energy>
    <i name="e_fr_energy">    -66.07526310 </i>
    <i name="e_wo_entrp">    -66.07526310 </i>
    <i name="e_0_energy">    -66.07526310 </i>
   </energy>
  </scstep>
  <scstep>
   <time name="diag">    0.46    0.46</time>
   <time name="diis">    1.52    1.52</time>
   <time name="orth">    0.04    0.04</time>
   <time name="total">    2.94    2.96</time>
   <energy>
    <i name="e_fr_energy">    -66.07526322 </i>
    <i name="e_wo_entrp">    -66.07526322 </i>
    <i name="e_0_energy">    -66.07526322 </i>
   </energy>
  </scstep>
  <scstep>
   <time name="diag">    0.46    0.46</time>
   <time name="diis">    0.95    0.95</time>
   <time name="orth">    0.04    0.04</time>
   <time name="total">    2.36    2.36</time>
   <energy>
    <i name="e_fr_energy">    -66.07526312 </i>
    <i name="e_wo_entrp">    -66.07526312 </i>
    <i name="e_0_energy">    -66.07526312 </i>
   </energy>
  </scstep>
  <scstep>
   <time name="diag">    0.46    0.46</time>
   <time name="diis">    0.95    0.95</time>
   <time name="orth">    0.04    0.04</time>
   <time name="total">    2.35    2.37</time>
   <energy>
    <i name="e_fr_energy">    -66.07526310 </i>
    <i name="e_wo_entrp">    -66.07526310 </i>
    <i name="e_0_energy">    -66.07526310 </i>
   </energy>
  </scstep>
  <scstep>
   <time name="diag">    0.46    0.46</time>
   <time name="diis">    0.94    0.94</time>
   <time name="orth">    0.04    0.04</time>
   <time name="total">    2.36    2.36</time>
   <energy>
    <i name="e_fr_energy">    -66.07526311 </i>
    <i name="e_wo_entrp">    -66.07526311 </i>
    <i name="e_0_energy">    -66.07526311 </i>
   </energy>
  </scstep>
  <scstep>
   <time name="diag">    0.46    0.46</time>
   <time name="diis">    0.94    0.94</time>
   <time name="orth">    0.05    0.05</time>
   <time name="total">    2.44    2.45</time>
   <energy>
    <i name="e_fr_energy">    -66.07526315 </i>
    <i name="e_wo_entrp">    -66.07526315 </i>
    <i name="e_0_energy">    -66.07526315 </i>
   </energy>
  </scstep>
  <scstep>
   <time name="diag">    0.46    0.46</time>
   <time name="diis">    1.52    1.52</time>
   <time name="orth">    0.04    0.04</time>
   <time name="total">    2.92    2.93</time>
   <energy>
    <i name="e_fr_energy">    -66.07526288 </i>
    <i name="e_wo_entrp">    -66.07526288 </i>
    <i name="e_0_energy">    -66.07526288 </i>
   </energy>
  </scstep>
  <scstep>
   <time name="diag">    0.46    0.46</time>
   <time name="diis">    1.51    1.51</time>
   <time name="orth">    0.04    0.04</time>
   <time name="total">    2.91    2.93</time>
   <energy>
    <i name="e_fr_energy">    -66.07526256 </i>
    <i name="e_wo_entrp">    -66.07526256 </i>
    <i name="e_0_energy">    -66.07526256 </i>
   </energy>
  </scstep>
  <scstep>
   <time name="diag">    0.46    0.46</time>
   <time name="diis">    0.94    0.94</time>
   <time name="orth">    0.04    0.04</time>
   <time name="total">    2.33    2.35</time>
   <energy>
    <i name="e_fr_energy">    -66.07526257 </i>
    <i name="e_wo_entrp">    -66.07526257 </i>
    <i name="e_0_energy">    -66.07526257 </i>
   </energy>
  </scstep>
  <scstep>
   <time name="diag">    0.46    0.46</time>
   <time name="diis">    0.93    0.93</time>
   <time name="orth">    0.04    0.04</time>
   <time name="total">    2.33    2.34</time>
   <energy>
    <i name="e_fr_energy">    -66.07526267 </i>
    <i name="e_wo_entrp">    -66.07526267 </i>
    <i name="e_0_energy">    -66.07526267 </i>
   </energy>
  </scstep>
  <scstep>
   <time name="diag">    0.46    0.46</time>
   <time name="diis">    0.92    0.92</time>
   <time name="orth">    0.04    0.04</time>
   <time name="total">    2.31    2.33</time>
   <energy>
    <i name="e_fr_energy">    -66.07526270 </i>
    <i name="e_wo_entrp">    -66.07526270 </i>
    <i name="e_0_energy">    -66.07526270 </i>
   </energy>
  </scstep>
  <scstep>
   <time name="diag">    0.46    0.46</time>
   <time name="diis">    0.91    0.91</time>
   <time name="orth">    0.04    0.04</time>
   <time name="total">    1.78    1.79</time>
   <energy>
    <i name="alphaZ">    290.84593714 </i>
    <i name="ewald"> -11146.65338472 </i>
    <i name="hartreedc">  -3990.16384713 </i>
    <i name="XCdc">     92.07849279 </i>
    <i name="pawpsdc">  14948.20967622 </i>
    <i name="pawaedc"> -14512.44324787 </i>
    <i name="eentropy">     -0.00000000 </i>
    <i name="bandstr">   -832.02418061 </i>
    <i name="atom">  15084.07529148 </i>
    <i name="e_fr_energy">    -66.07526270 </i>
    <i name="e_wo_entrp">    -66.07526270 </i>
    <i name="e_0_energy">    -66.07526270 </i>
   </energy>
  </scstep>
  <structure>
   <crystal>
    <varray name="basis" >
     <v>       0.00000000       6.44251659       6.44251659 </v>
     <v>       6.44251659       0.00000000       6.44251659 </v>
     <v>       6.44251659       6.44251659       0.00000000 </v>
    </varray>
    <i name="volume">    534.80644428 </i>
    <varray name="rec_basis" >
     <v>      -0.07760942       0.07760942       0.07760942 </v>
     <v>       0.07760942      -0.07760942       0.07760942 </v>
     <v>       0.07760942       0.07760942      -0.07760942 </v>
    </varray>
   </crystal>
   <varray name="positions" >
    <v>       0.25000000       0.25000000       0.25000000 </v>
    <v>       0.75000000       0.25000000       0.25000000 </v>
    <v>       0.25000000       0.75000000       0.25000000 </v>
    <v>       0.75000000       0.75000000       0.25000000 </v>
    <v>       0.25000000       0.25000000       0.75000000 </v>
    <v>       0.75000000       0.25000000       0.75000000 </v>
    <v>       0.25000000       0.75000000       0.75000000 </v>
    <v>       0.75000000       0.75000000       0.75000000 </v>
    <v>       0.00000000       0.00000000       0.00000000 </v>
    <v>       0.50000000       0.00000000       0.00000000 </v>
    <v>       0.00000000       0.50000000       0.00000000 </v>
    <v>       0.50000000       0.50000000       0.00000000 </v>
    <v>       0.00000000       0.00000000       0.50000000 </v>
    <v>       0.50000000       0.00000000       0.50000000 </v>
    <v>       0.00000000       0.50000000       0.50000000 </v>
    <v>       0.50000000       0.50000000       0.50000000 </v>
   </varray>
  </structure>
  <varray name="forces" >
   <v>      -0.00000000       0.00000000      -0.00000000 </v>
   <v>      -0.00000000      -0.00000000      -0.00000000 </v>
   <v>      -0.00000000       0.00000000       0.00000000 </v>
   <v>       0.00000000       0.00000000       0.00000000 </v>
   <v>       0.00000000       0.00000000      -0.00000000 </v>
   <v>       0.00000000       0.00000000       0.00000000 </v>
   <v>       0.00000000       0.00000000       0.00000000 </v>
   <v>       0.00000000      -0.00000000      -0.00000000 </v>
   <v>       0.00000000      -0.00000000       0.00000000 </v>
   <v>       0.00000000      -0.00000000       0.00000000 </v>
   <v>       0.00000000      -0.00000000       0.00000000 </v>
   <v>       0.00000000      -0.00000000       0.00000000 </v>
   <v>       0.00000000      -0.00000000       0.00000000 </v>
   <v>       0.00000000      -0.00000000       0.00000000 </v>
   <v>       0.00000000      -0.00000000       0.00000000 </v>
   <v>       0.00000000      -0.00000000       0.00000000 </v>
  </varray>
  <varray name="stress" >
   <v>       0.10247864      -0.00000000      -0.00000000 </v>
   <v>      -0.00000000       0.10247864      -0.00000000 </v>
   <v>      -0.00000000      -0.00000000       0.10247864 </v>
  </varray>
  <energy>
   <i name="e_fr_energy">    -66.07526270 </i>
   <i name="e_wo_entrp">    -66.07526270 </i>
   <i name="e_0_energy">    -66.07526270 </i>
  </energy>
  <time name="totalsc">   78.94   80.02</time>
 </calculation>
 <structure>
  <crystal>
   <varray name="basis" >
    <v>       0.00000000       6.44305973       6.44305973 </v>
    <v>       6.44305973       0.00000000       6.44305973 </v>
    <v>       6.44305973       6.44305973       0.00000000 </v>
   </varray>
   <i name="volume">    534.94171834 </i>
   <varray name="rec_basis" >
    <v>      -0.07760288       0.07760288       0.07760288 </v>
    <v>       0.07760288      -0.07760288       0.07760288 </v>
    <v>       0.07760288       0.07760288      -0.07760288 </v>
   </varray>
  </crystal>
  <varray name="positions" >
   <v>       0.25000000       0.25000000       0.25000000 </v>
   <v>       0.75000000       0.25000000       0.25000000 </v>
   <v>       0.25000000       0.75000000       0.25000000 </v>
   <v>       0.75000000       0.75000000       0.25000000 </v>
   <v>       0.25000000       0.25000000       0.75000000 </v>
   <v>       0.75000000       0.25000000       0.75000000 </v>
   <v>       0.25000000       0.75000000       0.75000000 </v>
   <v>       0.75000000       0.75000000       0.75000000 </v>
   <v>       0.00000000       0.00000000       0.00000000 </v>
   <v>       0.50000000       0.00000000       0.00000000 </v>
   <v>       0.00000000       0.50000000       0.00000000 </v>
   <v>       0.50000000       0.50000000       0.00000000 </v>
   <v>       0.00000000       0.00000000       0.50000000 </v>
   <v>       0.50000000       0.00000000       0.50000000 </v>
   <v>       0.00000000       0.50000000       0.50000000 </v>
   <v>       0.50000000       0.50000000       0.50000000 </v>
  </varray>
 </structure>
 <varray name="forces" >
  <v>       0.00000000      -0.00000000      -0.00000000 </v>
  <v>       0.00000000      -0.00000000      -0.00000000 </v>
  <v>      -0.00000000       0.00000000      -0.00000000 </v>
  <v>      -0.00000000      -0.00000000       0.00000000 </v>
  <v>       0.00000000       0.00000000      -0.00000000 </v>
  <v>      -0.00000000       0.00000000       0.00000000 </v>
  <v>       0.00000000       0.00000000       0.00000000 </v>
  <v>      -0.00000000      -0.00000000      -0.00000000 </v>
  <v>       0.00000000      -0.00000000      -0.00000000 </v>
  <v>       0.00000000      -0.00000000       0.00000000 </v>
  <v>       0.00000000       0.00000000      -0.00000000 </v>
  <v>       0.00000000       0.00000000      -0.00000000 </v>
  <v>      -0.00000000      -0.00000000       0.00000000 </v>
  <v>       0.00000000      -0.00000000       0.00000000 </v>
  <v>      -0.00000000       0.00000000       0.00000000 </v>
  <v>       0.00000000      -0.00000000       0.00000000 </v>
 </varray>
 <varray name="stress" >
  <v>      -0.07721671       0.00000000       0.00000000 </v>
  <v>       0.00000000      -0.07721671       0.00000000 </v>
  <v>       0.00000000       0.00000000      -0.07721671 </v>
 </varray>
 <energy>
  <i name="e_fr_energy">    -66.07525624 </i>
  <i name="e_wo_entrp">    -66.07525624 </i>
  <i name="e_0_energy">    -66.07525624 </i>
 </energy>
 <time name="totalsc">    0.01    0.04</time>
 <structure>
  <crystal>
   <varray name="basis" >
    <v>       0.00000000       6.44282630       6.44282630 </v>
    <v>       6.44282630       0.00000000       6.44282630 </v>
    <v>       6.44282630       6.44282630       0.00000000 </v>
   </varray>
   <i name="volume">    534.88357868 </i>
   <varray name="rec_basis" >
    <v>      -0.07760569       0.07760569       0.07760569 </v>
    <v>       0.07760569      -0.07760569       0.07760569 </v>
    <v>       0.07760569       0.07760569      -0.07760569 </v>
   </varray>
  </crystal>
  <varray name="positions" >
   <v>       0.25000000       0.25000000       0.25000000 </v>
   <v>       0.75000000       0.25000000       0.25000000 </v>
   <v>       0.25000000       0.75000000       0.25000000 </v>
   <v>       0.75000000       0.75000000       0.25000000 </v>
   <v>       0.25000000       0.25000000       0.75000000 </v>
   <v>       0.75000000       0.25000000       0.75000000 </v>
   <v>       0.25000000       0.75000000       0.75000000 </v>
   <v>       0.75000000       0.75000000       0.75000000 </v>
   <v>       0.00000000       0.00000000       0.00000000 </v>
   <v>       0.50000000       0.00000000       0.00000000 </v>
   <v>       0.00000000       0.50000000       0.00000000 </v>
   <v>       0.50000000       0.50000000       0.00000000 </v>
   <v>       0.00000000       0.00000000       0.50000000 </v>
   <v>       0.50000000       0.00000000       0.50000000 </v>
   <v>       0.00000000       0.50000000       0.50000000 </v>
   <v>       0.50000000       0.50000000       0.50000000 </v>
  </varray>
 </structure>
 <varray name="forces" >
  <v>       0.00000000       0.00000000       0.00000000 </v>
  <v>       0.00000000      -0.00000000       0.00000000 </v>
  <v>       0.00000000       0.00000000      -0.00000000 </v>
  <v>       0.00000000       0.00000000      -0.00000000 </v>
  <v>      -0.00000000      -0.00000000       0.00000000 </v>
  <v>      -0.00000000      -0.00000000       0.00000000 </v>
  <v>      -0.00000000      -0.00000000      -0.00000000 </v>
  <v>      -0.00000000      -0.00000000      -0.00000000 </v>
  <v>      -0.00000000       0.00000000       0.00000000 </v>
  <v>       0.00000000      -0.00000000       0.00000000 </v>
  <v>       0.00000000       0.00000000       0.00000000 </v>
  <v>       0.00000000       0.00000000       0.00000000 </v>
  <v>       0.00000000      -0.00000000      -0.00000000 </v>
  <v>      -0.00000000      -0.00000000       0.00000000 </v>
  <v>      -0.00000000       0.00000000       0.00000000 </v>
  <v>      -0.00000000      -0.00000000      -0.00000000 </v>
 </varray>
 <varray name="stress" >
  <v>      -0.07722589       0.00000000       0.00000000 </v>
  <v>       0.00000000      -0.07722589       0.00000000 </v>
  <v>       0.00000000       0.00000000      -0.07722589 </v>
 </varray>
 <energy>
  <i name="e_fr_energy">    -66.07525904 </i>
  <i name="e_wo_entrp">    -66.07525904 </i>
  <i name="e_0_energy">    -66.07525904 </i>
 </energy>
 <time name="totalsc">    0.01    0.03</time>
 <structure>
  <crystal>
   <varray name="basis" >
    <v>       0.00000000       6.44267145       6.44267145 </v>
    <v>       6.44267145       0.00000000       6.44267145 </v>
    <v>       6.44267145       6.44267145       0.00000000 </v>
   </varray>
   <i name="volume">    534.84501055 </i>
   <varray name="rec_basis" >
    <v>      -0.07760756       0.07760756       0.07760756 </v>
    <v>       0.07760756      -0.07760756       0.07760756 </v>
    <v>       0.07760756       0.07760756      -0.07760756 </v>
   </varray>
  </crystal>
  <varray name="positions" >
   <v>       0.25000000       0.25000000       0.25000000 </v>
   <v>       0.75000000       0.25000000       0.25000000 </v>
   <v>       0.25000000       0.75000000       0.25000000 </v>
   <v>       0.75000000       0.75000000       0.25000000 </v>
   <v>       0.25000000       0.25000000       0.75000000 </v>
   <v>       0.75000000       0.25000000       0.75000000 </v>
   <v>       0.25000000       0.75000000       0.75000000 </v>
   <v>       0.75000000       0.75000000       0.75000000 </v>
   <v>       0.00000000       0.00000000       0.00000000 </v>
   <v>       0.50000000       0.00000000       0.00000000 </v>
   <v>       0.00000000       0.50000000       0.00000000 </v>
   <v>       0.50000000       0.50000000       0.00000000 </v>
   <v>       0.00000000       0.00000000       0.50000000 </v>
   <v>       0.50000000       0.00000000       0.50000000 </v>
   <v>       0.00000000       0.50000000       0.50000000 </v>
   <v>       0.50000000       0.50000000       0.50000000 </v>
  </varray>
 </structure>
 <varray name="forces" >
  <v>       0.00000000       0.00000000      -0.00000000 </v>
  <v>       0.00000000      -0.00000000      -0.00000000 </v>
  <v>       0.00000000       0.00000000       0.00000000 </v>
  <v>      -0.00000000      -0.00000000       0.00000000 </v>
  <v>      -0.00000000       0.00000000      -0.00000000 </v>
  <v>       0.00000000      -0.00000000      -0.00000000 </v>
  <v>      -0.00000000      -0.00000000       0.00000000 </v>
  <v>      -0.00000000      -0.00000000       0.00000000 </v>
  <v>       0.00000000      -0.00000000       0.00000000 </v>
  <v>      -0.00000000      -0.00000000      -0.00000000 </v>
  <v>      -0.00000000       0.00000000       0.00000000 </v>
  <v>      -0.00000000       0.00000000      -0.00000000 </v>
  <v>       0.00000000      -0.00000000      -0.00000000 </v>
  <v>      -0.00000000      -0.00000000       0.00000000 </v>
  <v>      -0.00000000      -0.00000000       0.00000000 </v>
  <v>       0.00000000       0.00000000       0.00000000 </v>
 </varray>
 <varray name="stress" >
  <v>      -0.07723194      -0.00000000       0.00000000 </v>
  <v>      -0.00000000      -0.07723194      -0.00000000 </v>
  <v>       0.00000000      -0.00000000      -0.07723194 </v>
 </varray>
 <energy>
  <i name="e_fr_energy">    -66.07526090 </i>
  <i name="e_wo_entrp">    -66.07526090 </i>
  <i name="e_0_energy">    -66.07526090 </i>
 </energy>
 <time name="totalsc">    0.01    0.03</time>
 <structure>
  <crystal>
   <varray name="basis" >
    <v>       0.00000000       6.44259402       6.44259402 </v>
    <v>       6.44259402       0.00000000       6.44259402 </v>
    <v>       6.44259402       6.44259402       0.00000000 </v>
   </varray>
   <i name="volume">    534.82572718 </i>
   <varray name="rec_basis" >
    <v>      -0.07760849       0.07760849       0.07760849 </v>
    <v>       0.07760849      -0.07760849       0.07760849 </v>
    <v>       0.07760849       0.07760849      -0.07760849 </v>
   </varray>
  </crystal>
  <varray name="positions" >
   <v>       0.25000000       0.25000000       0.25000000 </v>
   <v>       0.75000000       0.25000000       0.25000000 </v>
   <v>       0.25000000       0.75000000       0.25000000 </v>
   <v>       0.75000000       0.75000000       0.25000000 </v>
   <v>       0.25000000       0.25000000       0.75000000 </v>
   <v>       0.75000000       0.25000000       0.75000000 </v>
   <v>       0.25000000       0.75000000       0.75000000 </v>
   <v>       0.75000000       0.75000000       0.75000000 </v>
   <v>       0.00000000       0.00000000       0.00000000 </v>
   <v>       0.50000000       0.00000000       0.00000000 </v>
   <v>       0.00000000       0.50000000       0.00000000 </v>
   <v>       0.50000000       0.50000000       0.00000000 </v>
   <v>       0.00000000       0.00000000       0.50000000 </v>
   <v>       0.50000000       0.00000000       0.50000000 </v>
   <v>       0.00000000       0.50000000       0.50000000 </v>
   <v>       0.50000000       0.50000000       0.50000000 </v>
  </varray>
 </structure>
 <varray name="forces" >
  <v>      -0.00000000      -0.00000000      -0.00000000 </v>
  <v>      -0.00000000      -0.00000000       0.00000000 </v>
  <v>       0.00000000      -0.00000000       0.00000000 </v>
  <v>      -0.00000000      -0.00000000       0.00000000 </v>
  <v>       0.00000000       0.00000000       0.00000000 </v>
  <v>       0.00000000       0.00000000       0.00000000 </v>
  <v>       0.00000000       0.00000000      -0.00000000 </v>
  <v>       0.00000000       0.00000000      -0.00000000 </v>
  <v>      -0.00000000       0.00000000      -0.00000000 </v>
  <v>       0.00000000      -0.00000000       0.00000000 </v>
  <v>       0.00000000       0.00000000      -0.00000000 </v>
  <v>      -0.00000000       0.00000000       0.00000000 </v>
  <v>      -0.00000000      -0.00000000      -0.00000000 </v>
  <v>      -0.00000000       0.00000000      -0.00000000 </v>
  <v>      -0.00000000      -0.00000000       0.00000000 </v>
  <v>       0.00000000      -0.00000000       0.00000000 </v>
 </varray>
 <varray name="stress" >
  <v>      -0.07723497       0.00000000       0.00000000 </v>
  <v>       0.00000000      -0.07723497      -0.00000000 </v>
  <v>       0.00000000      -0.00000000      -0.07723497 </v>
 </varray>
 <energy>
  <i name="e_fr_energy">    -66.07526183 </i>
  <i name="e_wo_entrp">    -66.07526183 </i>
  <i name="e_0_energy">    -66.07526183 </i>
 </energy>
 <time name="totalsc">    0.01    0.03</time>
 <structure>
  <crystal>
   <varray name="basis" >
    <v>       0.00000000       6.44255530       6.44255530 </v>
    <v>       6.44255530       0.00000000       6.44255530 </v>
    <v>       6.44255530       6.44255530       0.00000000 </v>
   </varray>
   <i name="volume">    534.81608567 </i>
   <varray name="rec_basis" >
    <v>      -0.07760896       0.07760896       0.07760896 </v>
    <v>       0.07760896      -0.07760896       0.07760896 </v>
    <v>       0.07760896       0.07760896      -0.07760896 </v>
   </varray>
  </crystal>
  <varray name="positions" >
   <v>       0.25000000       0.25000000       0.25000000 </v>
   <v>       0.75000000       0.25000000       0.25000000 </v>
   <v>       0.25000000       0.75000000       0.25000000 </v>
   <v>       0.75000000       0.75000000       0.25000000 </v>
   <v>       0.25000000       0.25000000       0.75000000 </v>
   <v>       0.75000000       0.25000000       0.75000000 </v>
   <v>       0.25000000       0.75000000       0.75000000 </v>
   <v>       0.75000000       0.75000000       0.75000000 </v>
   <v>       0.00000000       0.00000000       0.00000000 </v>
   <v>       0.50000000       0.00000000       0.00000000 </v>
   <v>       0.00000000       0.50000000       0.00000000 </v>
   <v>       0.50000000       0.50000000       0.00000000 </v>
   <v>       0.00000000       0.00000000       0.50000000 </v>
   <v>       0.50000000       0.00000000       0.50000000 </v>
   <v>       0.00000000       0.50000000       0.50000000 </v>
   <v>       0.50000000       0.50000000       0.50000000 </v>
  </varray>
 </structure>
 <varray name="forces" >
  <v>      -0.00000000      -0.00000000       0.00000000 </v>
  <v>       0.00000000       0.00000000      -0.00000000 </v>
  <v>       0.00000000      -0.00000000       0.00000000 </v>
  <v>       0.00000000      -0.00000000       0.00000000 </v>
  <v>      -0.00000000       0.00000000       0.00000000 </v>
  <v>       0.00000000       0.00000000      -0.00000000 </v>
  <v>       0.00000000      -0.00000000       0.00000000 </v>
  <v>       0.00000000      -0.00000000      -0.00000000 </v>
  <v>      -0.00000000      -0.00000000      -0.00000000 </v>
  <v>      -0.00000000      -0.00000000       0.00000000 </v>
  <v>      -0.00000000       0.00000000       0.00000000 </v>
  <v>       0.00000000       0.00000000      -0.00000000 </v>
  <v>       0.00000000      -0.00000000       0.00000000 </v>
  <v>       0.00000000       0.00000000      -0.00000000 </v>
  <v>       0.00000000      -0.00000000       0.00000000 </v>
  <v>       0.00000000      -0.00000000       0.00000000 </v>
 </varray>
 <varray name="stress" >
  <v>      -0.07723647       0.00000000      -0.00000000 </v>
  <v>       0.00000000      -0.07723647      -0.00000000 </v>
  <v>      -0.00000000      -0.00000000      -0.07723647 </v>
 </varray>
 <energy>
  <i name="e_fr_energy">    -66.07526229 </i>
  <i name="e_wo_entrp">    -66.07526229 </i>
  <i name="e_0_energy">    -66.07526229 </i>
 </energy>
 <time name="totalsc">    0.01    0.03</time>
 <structure>
  <crystal>
   <varray name="basis" >
    <v>       0.00000000       6.44253594       6.44253594 </v>
    <v>       6.44253594       0.00000000       6.44253594 </v>
    <v>       6.44253594       6.44253594       0.00000000 </v>
   </varray>
   <i name="volume">    534.81126496 </i>
   <varray name="rec_basis" >
    <v>      -0.07760919       0.07760919       0.07760919 </v>
    <v>       0.07760919      -0.07760919       0.07760919 </v>
    <v>       0.07760919       0.07760919      -0.07760919 </v>
   </varray>
  </crystal>
  <varray name="positions" >
   <v>       0.25000000       0.25000000       0.25000000 </v>
   <v>       0.75000000       0.25000000       0.25000000 </v>
   <v>       0.25000000       0.75000000       0.25000000 </v>
   <v>       0.75000000       0.75000000       0.25000000 </v>
   <v>       0.25000000       0.25000000       0.75000000 </v>
   <v>       0.75000000       0.25000000       0.75000000 </v>
   <v>       0.25000000       0.75000000       0.75000000 </v>
   <v>       0.75000000       0.75000000       0.75000000 </v>
   <v>       0.00000000       0.00000000       0.00000000 </v>
   <v>       0.50000000       0.00000000       0.00000000 </v>
   <v>       0.00000000       0.50000000       0.00000000 </v>
   <v>       0.50000000       0.50000000       0.00000000 </v>
   <v>       0.00000000       0.00000000       0.50000000 </v>
   <v>       0.50000000       0.00000000       0.50000000 </v>
   <v>       0.00000000       0.50000000       0.50000000 </v>
   <v>       0.50000000       0.50000000       0.50000000 </v>
  </varray>
 </structure>
 <varray name="forces" >
  <v>      -0.00000000      -0.00000000      -0.00000000 </v>
  <v>       0.00000000       0.00000000      -0.00000000 </v>
  <v>       0.00000000      -0.00000000      -0.00000000 </v>
  <v>      -0.00000000      -0.00000000      -0.00000000 </v>
  <v>       0.00000000       0.00000000      -0.00000000 </v>
  <v>      -0.00000000       0.00000000       0.00000000 </v>
  <v>       0.00000000      -0.00000000      -0.00000000 </v>
  <v>      -0.00000000      -0.00000000      -0.00000000 </v>
  <v>      -0.00000000      -0.00000000       0.00000000 </v>
  <v>      -0.00000000      -0.00000000      -0.00000000 </v>
  <v>      -0.00000000      -0.00000000       0.00000000 </v>
  <v>      -0.00000000       0.00000000       0.00000000 </v>
  <v>      -0.00000000      -0.00000000      -0.00000000 </v>
  <v>      -0.00000000       0.00000000       0.00000000 </v>
  <v>      -0.00000000       0.00000000      -0.00000000 </v>
  <v>       0.00000000      -0.00000000       0.00000000 </v>
 </varray>
 <varray name="stress" >
  <v>      -0.07723723       0.00000000      -0.00000000 </v>
  <v>       0.00000000      -0.07723723      -0.00000000 </v>
  <v>      -0.00000000      -0.00000000      -0.07723723 </v>
 </varray>
 <energy>
  <i name="e_fr_energy">    -66.07526253 </i>
  <i name="e_wo_entrp">    -66.07526253 </i>
  <i name="e_0_energy">    -66.07526253 </i>
 </energy>
 <time name="totalsc">    0.01    0.03</time>
 <structure>
  <crystal>
   <varray name="basis" >
    <v>       0.00000000       6.44252627       6.44252627 </v>
    <v>       6.44252627       0.00000000       6.44252627 </v>
    <v>       6.44252627       6.44252627       0.00000000 </v>
   </varray>
   <i name="volume">    534.80885461 </i>
   <varray name="rec_basis" >
    <v>      -0.07760931       0.07760931       0.07760931 </v>
    <v>       0.07760931      -0.07760931       0.07760931 </v>
    <v>       0.07760931       0.07760931      -0.07760931 </v>
   </varray>
  </crystal>
  <varray name="positions" >
   <v>       0.25000000       0.25000000       0.25000000 </v>
   <v>       0.75000000       0.25000000       0.25000000 </v>
   <v>       0.25000000       0.75000000       0.25000000 </v>
   <v>       0.75000000       0.75000000       0.25000000 </v>
   <v>       0.25000000       0.25000000       0.75000000 </v>
   <v>       0.75000000       0.25000000       0.75000000 </v>
   <v>       0.25000000       0.75000000       0.75000000 </v>
   <v>       0.75000000       0.75000000       0.75000000 </v>
   <v>       0.00000000       0.00000000       0.00000000 </v>
   <v>       0.50000000       0.00000000       0.00000000 </v>
   <v>       0.00000000       0.50000000       0.00000000 </v>
   <v>       0.50000000       0.50000000       0.00000000 </v>
   <v>       0.00000000       0.00000000       0.50000000 </v>
   <v>       0.50000000       0.00000000       0.50000000 </v>
   <v>       0.00000000       0.50000000       0.50000000 </v>
   <v>       0.50000000       0.50000000       0.50000000 </v>
  </varray>
 </structure>
 <varray name="forces" >
  <v>       0.00000000       0.00000000       0.00000000 </v>
  <v>       0.00000000       0.00000000       0.00000000 </v>
  <v>       0.00000000       0.00000000      -0.00000000 </v>
  <v>       0.00000000       0.00000000       0.00000000 </v>
  <v>      -0.00000000      -0.00000000      -0.00000000 </v>
  <v>      -0.00000000      -0.00000000       0.00000000 </v>
  <v>      -0.00000000      -0.00000000      -0.00000000 </v>
  <v>      -0.00000000      -0.00000000      -0.00000000 </v>
  <v>      -0.00000000      -0.00000000      -0.00000000 </v>
  <v>      -0.00000000       0.00000000      -0.00000000 </v>
  <v>      -0.00000000      -0.00000000      -0.00000000 </v>
  <v>      -0.00000000       0.00000000       0.00000000 </v>
  <v>      -0.00000000      -0.00000000       0.00000000 </v>
  <v>      -0.00000000      -0.00000000       0.00000000 </v>
  <v>       0.00000000      -0.00000000       0.00000000 </v>
  <v>      -0.00000000       0.00000000      -0.00000000 </v>
 </varray>
 <varray name="stress" >
  <v>      -0.07723760       0.00000000       0.00000000 </v>
  <v>       0.00000000      -0.07723760       0.00000000 </v>
  <v>       0.00000000       0.00000000      -0.07723760 </v>
 </varray>
 <energy>
  <i name="e_fr_energy">    -66.07526264 </i>
  <i name="e_wo_entrp">    -66.07526264 </i>
  <i name="e_0_energy">    -66.07526264 </i>
 </energy>
 <time name="totalsc">    0.01    0.03</time>
 <structure>
  <crystal>
   <varray name="basis" >
    <v>       0.00000000       6.44252143       6.44252143 </v>
    <v>       6.44252143       0.00000000       6.44252143 </v>
    <v>       6.44252143       6.44252143       0.00000000 </v>
   </varray>
   <i name="volume">    534.80764944 </i>
   <varray name="rec_basis" >
    <v>      -0.07760937       0.07760937       0.07760937 </v>
    <v>       0.07760937      -0.07760937       0.07760937 </v>
    <v>       0.07760937       0.07760937      -0.07760937 </v>
   </varray>
  </crystal>
  <varray name="positions" >
   <v>       0.25000000       0.25000000       0.25000000 </v>
   <v>       0.75000000       0.25000000       0.25000000 </v>
   <v>       0.25000000       0.75000000       0.25000000 </v>
   <v>       0.75000000       0.75000000       0.25000000 </v>
   <v>       0.25000000       0.25000000       0.75000000 </v>
   <v>       0.75000000       0.25000000       0.75000000 </v>
   <v>       0.25000000       0.75000000       0.75000000 </v>
   <v>       0.75000000       0.75000000       0.75000000 </v>
   <v>       0.00000000       0.00000000       0.00000000 </v>
   <v>       0.50000000       0.00000000       0.00000000 </v>
   <v>       0.00000000       0.50000000       0.00000000 </v>
   <v>       0.50000000       0.50000000       0.00000000 </v>
   <v>       0.00000000       0.00000000       0.50000000 </v>
   <v>       0.50000000       0.00000000       0.50000000 </v>
   <v>       0.00000000       0.50000000       0.50000000 </v>
   <v>       0.50000000       0.50000000       0.50000000 </v>
  </varray>
 </structure>
 <varray name="forces" >
  <v>       0.00000000       0.00000000      -0.00000000 </v>
  <v>       0.00000000       0.00000000       0.00000000 </v>
  <v>       0.00000000       0.00000000      -0.00000000 </v>
  <v>       0.00000000       0.00000000      -0.00000000 </v>
  <v>      -0.00000000      -0.00000000       0.00000000 </v>
  <v>      -0.00000000      -0.00000000       0.00000000 </v>
  <v>      -0.00000000      -0.00000000      -0.00000000 </v>
  <v>      -0.00000000      -0.00000000       0.00000000 </v>
  <v>       0.00000000      -0.00000000      -0.00000000 </v>
  <v>       0.00000000      -0.00000000      -0.00000000 </v>
  <v>      -0.00000000      -0.00000000      -0.00000000 </v>
  <v>      -0.00000000      -0.00000000      -0.00000000 </v>
  <v>       0.00000000       0.00000000       0.00000000 </v>
  <v>       0.00000000       0.00000000      -0.00000000 </v>
  <v>       0.00000000       0.00000000       0.00000000 </v>
  <v>       0.00000000      -0.00000000       0.00000000 </v>
 </varray>
 <varray name="stress" >
  <v>      -0.07723779      -0.00000000       0.00000000 </v>
  <v>      -0.00000000      -0.07723779      -0.00000000 </v>
  <v>       0.00000000      -0.00000000      -0.07723779 </v>
 </varray>
 <energy>
  <i name="e_fr_energy">    -66.07526270 </i>
  <i name="e_wo_entrp">    -66.07526270 </i>
  <i name="e_0_energy">    -66.07526270 </i>
 </energy>
 <time name="totalsc">    0.01    0.03</time>
 <structure>
  <crystal>
   <varray name="basis" >
    <v>       0.00000000       6.44251901       6.44251901 </v>
    <v>       6.44251901       0.00000000       6.44251901 </v>
    <v>       6.44251901       6.44251901       0.00000000 </v>
   </varray>
   <i name="volume">    534.80704686 </i>
   <varray name="rec_basis" >
    <v>      -0.07760939       0.07760939       0.07760939 </v>
    <v>       0.07760939      -0.07760939       0.07760939 </v>
    <v>       0.07760939       0.07760939      -0.07760939 </v>
   </varray>
  </crystal>
  <varray name="positions" >
   <v>       0.25000000       0.25000000       0.25000000 </v>
   <v>       0.75000000       0.25000000       0.25000000 </v>
   <v>       0.25000000       0.75000000       0.25000000 </v>
   <v>       0.75000000       0.75000000       0.25000000 </v>
   <v>       0.25000000       0.25000000       0.75000000 </v>
   <v>       0.75000000       0.25000000       0.75000000 </v>
   <v>       0.25000000       0.75000000       0.75000000 </v>
   <v>       0.75000000       0.75000000       0.75000000 </v>
   <v>       0.00000000       0.00000000       0.00000000 </v>
   <v>       0.50000000       0.00000000       0.00000000 </v>
   <v>       0.00000000       0.50000000       0.00000000 </v>
   <v>       0.50000000       0.50000000       0.00000000 </v>
   <v>       0.00000000       0.00000000       0.50000000 </v>
   <v>       0.50000000       0.00000000       0.50000000 </v>
   <v>       0.00000000       0.50000000       0.50000000 </v>
   <v>       0.50000000       0.50000000       0.50000000 </v>
  </varray>
 </structure>
 <varray name="forces" >
  <v>      -0.00000000       0.00000000      -0.00000000 </v>
  <v>       0.00000000       0.00000000      -0.00000000 </v>
  <v>       0.00000000      -0.00000000      -0.00000000 </v>
  <v>       0.00000000      -0.00000000      -0.00000000 </v>
  <v>       0.00000000       0.00000000      -0.00000000 </v>
  <v>       0.00000000      -0.00000000       0.00000000 </v>
  <v>       0.00000000       0.00000000      -0.00000000 </v>
  <v>      -0.00000000       0.00000000      -0.00000000 </v>
  <v>      -0.00000000       0.00000000       0.00000000 </v>
  <v>       0.00000000       0.00000000      -0.00000000 </v>
  <v>      -0.00000000       0.00000000       0.00000000 </v>
  <v>       0.00000000      -0.00000000       0.00000000 </v>
  <v>      -0.00000000      -0.00000000       0.00000000 </v>
  <v>       0.00000000      -0.00000000       0.00000000 </v>
  <v>       0.00000000      -0.00000000      -0.00000000 </v>
  <v>      -0.00000000       0.00000000      -0.00000000 </v>
 </varray>
 <varray name="stress" >
  <v>      -0.07723789      -0.00000000      -0.00000000 </v>
  <v>      -0.00000000      -0.07723789      -0.00000000 </v>
  <v>      -0.00000000      -0.00000000      -0.07723789 </v>
 </varray>
 <energy>
  <i name="e_fr_energy">    -66.07526273 </i>
  <i name="e_wo_entrp">    -66.07526273 </i>
  <i name="e_0_energy">    -66.07526273 </i>
 </energy>
 <time name="totalsc">    0.01    0.03</time>
 <structure>
  <crystal>
   <varray name="basis" >
    <v>       0.00000000       6.44251780       6.44251780 </v>
    <v>       6.44251780       0.00000000       6.44251780 </v>
    <v>       6.44251780       6.44251780       0.00000000 </v>
   </varray>
   <i name="volume">    534.80674557 </i>
   <varray name="rec_basis" >
    <v>      -0.07760941       0.07760941       0.07760941 </v>
    <v>       0.07760941      -0.07760941       0.07760941 </v>
    <v>       0.07760941       0.07760941      -0.07760941 </v>
   </varray>
  </crystal>
  <varray name="positions" >
   <v>       0.25000000       0.25000000       0.25000000 </v>
   <v>       0.75000000       0.25000000       0.25000000 </v>
   <v>       0.25000000       0.75000000       0.25000000 </v>
   <v>       0.75000000       0.75000000       0.25000000 </v>
   <v>       0.25000000       0.25000000       0.75000000 </v>
   <v>       0.75000000       0.25000000       0.75000000 </v>
   <v>       0.25000000       0.75000000       0.75000000 </v>
   <v>       0.75000000       0.75000000       0.75000000 </v>
   <v>       0.00000000       0.00000000       0.00000000 </v>
   <v>       0.50000000       0.00000000       0.00000000 </v>
   <v>       0.00000000       0.50000000       0.00000000 </v>
   <v>       0.50000000       0.50000000       0.00000000 </v>
   <v>       0.00000000       0.00000000       0.50000000 </v>
   <v>       0.50000000       0.00000000       0.50000000 </v>
   <v>       0.00000000       0.50000000       0.50000000 </v>
   <v>       0.50000000       0.50000000       0.50000000 </v>
  </varray>
 </structure>
 <varray name="forces" >
  <v>       0.00000000       0.00000000       0.00000000 </v>
  <v>       0.00000000      -0.00000000       0.00000000 </v>
  <v>      -0.00000000       0.00000000       0.00000000 </v>
  <v>       0.00000000       0.00000000       0.00000000 </v>
  <v>       0.00000000      -0.00000000       0.00000000 </v>
  <v>       0.00000000       0.00000000       0.00000000 </v>
  <v>      -0.00000000       0.00000000      -0.00000000 </v>
  <v>      -0.00000000       0.00000000      -0.00000000 </v>
  <v>       0.00000000      -0.00000000       0.00000000 </v>
  <v>       0.00000000      -0.00000000      -0.00000000 </v>
  <v>       0.00000000       0.00000000       0.00000000 </v>
  <v>      -0.00000000      -0.00000000       0.00000000 </v>
  <v>      -0.00000000      -0.00000000       0.00000000 </v>
  <v>       0.00000000       0.00000000      -0.00000000 </v>
  <v>      -0.00000000       0.00000000       0.00000000 </v>
  <v>       0.00000000      -0.00000000       0.00000000 </v>
 </varray>
 <varray name="stress" >
  <v>      -0.07723793       0.00000000       0.00000000 </v>
  <v>       0.00000000      -0.07723793       0.00000000 </v>
  <v>       0.00000000       0.00000000      -0.07723793 </v>
 </varray>
 <energy>
  <i name="e_fr_energy">    -66.07526274 </i>
  <i name="e_wo_entrp">    -66.07526274 </i>
  <i name="e_0_energy">    -66.07526274 </i>
 </energy>
 <time name="totalsc">    0.01    0.03</time>
 <structure>
  <crystal>
   <varray name="basis" >
    <v>       0.00000000       6.44251719       6.44251719 </v>
    <v>       6.44251719       0.00000000       6.44251719 </v>
    <v>       6.44251719       6.44251719       0.00000000 </v>
   </varray>
   <i name="volume">    534.80659492 </i>
   <varray name="rec_basis" >
    <v>      -0.07760942       0.07760942       0.07760942 </v>
    <v>       0.07760942      -0.07760942       0.07760942 </v>
    <v>       0.07760942       0.07760942      -0.07760942 </v>
   </varray>
  </crystal>
  <varray name="positions" >
   <v>       0.25000000       0.25000000       0.25000000 </v>
   <v>       0.75000000       0.25000000       0.25000000 </v>
   <v>       0.25000000       0.75000000       0.25000000 </v>
   <v>       0.75000000       0.75000000       0.25000000 </v>
   <v>       0.25000000       0.25000000       0.75000000 </v>
   <v>       0.75000000       0.25000000       0.75000000 </v>
   <v>       0.25000000       0.75000000       0.75000000 </v>
   <v>       0.75000000       0.75000000       0.75000000 </v>
   <v>       0.00000000       0.00000000       0.00000000 </v>
   <v>       0.50000000       0.00000000       0.00000000 </v>
   <v>       0.00000000       0.50000000       0.00000000 </v>
   <v>       0.50000000       0.50000000       0.00000000 </v>
   <v>       0.00000000       0.00000000       0.50000000 </v>
   <v>       0.50000000       0.00000000       0.50000000 </v>
   <v>       0.00000000       0.50000000       0.50000000 </v>
   <v>       0.50000000       0.50000000       0.50000000 </v>
  </varray>
 </structure>
 <varray name="forces" >
  <v>      -0.00000000      -0.00000000      -0.00000000 </v>
  <v>      -0.00000000      -0.00000000       0.00000000 </v>
  <v>       0.00000000       0.00000000       0.00000000 </v>
[...]
   <v>       0.50000000       0.00000000       0.50000000 </v>
   <v>       0.00000000       0.50000000       0.50000000 </v>
   <v>       0.50000000       0.50000000       0.50000000 </v>
  </varray>
 </structure>
 <varray name="forces" >
  <v>      -0.00000000       0.00000000       0.00000000 </v>
  <v>      -0.00000000      -0.00000000      -0.00000000 </v>
  <v>      -0.00000000      -0.00000000      -0.00000000 </v>
  <v>       0.00000000      -0.00000000       0.00000000 </v>
  <v>       0.00000000       0.00000000      -0.00000000 </v>
  <v>       0.00000000       0.00000000       0.00000000 </v>
  <v>       0.00000000       0.00000000      -0.00000000 </v>
  <v>       0.00000000       0.00000000       0.00000000 </v>
  <v>       0.00000000      -0.00000000       0.00000000 </v>
  <v>      -0.00000000       0.00000000      -0.00000000 </v>
  <v>      -0.00000000      -0.00000000       0.00000000 </v>
  <v>       0.00000000       0.00000000       0.00000000 </v>
  <v>      -0.00000000      -0.00000000       0.00000000 </v>
  <v>       0.00000000      -0.00000000      -0.00000000 </v>
  <v>      -0.00000000      -0.00000000       0.00000000 </v>
  <v>      -0.00000000       0.00000000      -0.00000000 </v>
 </varray>
 <varray name="stress" >
  <v>      -0.07723797      -0.00000000       0.00000000 </v>
  <v>      -0.00000000      -0.07723797      -0.00000000 </v>
  <v>       0.00000000      -0.00000000      -0.07723797 </v>
 </varray>
 <energy>
  <i name="e_fr_energy">    -66.07526275 </i>
  <i name="e_wo_entrp">    -66.07526275 </i>
  <i name="e_0_energy">    -66.07526275 </i>
 </energy>
 <time name="totalsc">    0.01    0.03</time>
 <structure>
  <crystal>
   <varray name="basis" >
    <v>       0.00000000       6.44251674       6.44251674 </v>
    <v>       6.44251674       0.00000000       6.44251674 </v>
    <v>       6.44251674       6.44251674       0.00000000 </v>
   </varray>
   <i name="volume">    534.80648194 </i>
   <varray name="rec_basis" >
    <v>      -0.07760942       0.07760942       0.07760942 </v>
    <v>       0.07760942      -0.07760942       0.07760942 </v>
    <v>       0.07760942       0.07760942      -0.07760942 </v>
   </varray>
  </crystal>
  <varray name="positions" >
   <v>       0.25000000       0.25000000       0.25000000 </v>
   <v>       0.75000000       0.25000000       0.25000000 </v>
   <v>       0.25000000       0.75000000       0.25000000 </v>
   <v>       0.75000000       0.75000000       0.25000000 </v>
   <v>       0.25000000       0.25000000       0.75000000 </v>
   <v>       0.75000000       0.25000000       0.75000000 </v>
   <v>       0.25000000       0.75000000       0.75000000 </v>
   <v>       0.75000000       0.75000000       0.75000000 </v>
   <v>       0.00000000       0.00000000       0.00000000 </v>
   <v>       0.50000000       0.00000000       0.00000000 </v>
   <v>       0.00000000       0.50000000       0.00000000 </v>
   <v>       0.50000000       0.50000000       0.00000000 </v>
   <v>       0.00000000       0.00000000       0.50000000 </v>
   <v>       0.50000000       0.00000000       0.50000000 </v>
   <v>       0.00000000       0.50000000       0.50000000 </v>
   <v>       0.50000000       0.50000000       0.50000000 </v>
  </varray>
 </structure>
 <varray name="forces" >
  <v>      -0.00000000       0.00000000      -0.00000000 </v>
  <v>       0.00000000       0.00000000       0.00000000 </v>
  <v>       0.00000000      -0.00000000      -0.00000000 </v>
  <v>      -0.00000000      -0.00000000      -0.00000000 </v>
  <v>       0.00000000      -0.00000000      -0.00000000 </v>
  <v>      -0.00000000      -0.00000000      -0.00000000 </v>
  <v>       0.00000000      -0.00000000      -0.00000000 </v>
  <v>      -0.00000000       0.00000000       0.00000000 </v>
  <v>       0.00000000       0.00000000       0.00000000 </v>
  <v>       0.00000000       0.00000000       0.00000000 </v>
  <v>      -0.00000000      -0.00000000       0.00000000 </v>
  <v>       0.00000000      -0.00000000      -0.00000000 </v>
  <v>       0.00000000       0.00000000       0.00000000 </v>
  <v>      -0.00000000       0.00000000       0.00000000 </v>
  <v>       0.00000000      -0.00000000       0.00000000 </v>
  <v>      -0.00000000      -0.00000000       0.00000000 </v>
 </varray>
 <varray name="stress" >
  <v>      -0.07723797       0.00000000      -0.00000000 </v>
  <v>       0.00000000      -0.07723797       0.00000000 </v>
  <v>      -0.00000000       0.00000000      -0.07723797 </v>
 </varray>
 <energy>
  <i name="e_fr_energy">    -66.07526276 </i>
  <i name="e_wo_entrp">    -66.07526276 </i>
  <i name="e_0_energy">    -66.07526276 </i>
 </energy>
 <time name="totalsc">    0.01    0.03</time>
 <structure>
  <crystal>
   <varray name="basis" >
    <v>       0.00000000       6.44251666       6.44251666 </v>
    <v>       6.44251666       0.00000000       6.44251666 </v>
    <v>       6.44251666       6.44251666       0.00000000 </v>
   </varray>
   <i name="volume">    534.80646311 </i>
   <varray name="rec_basis" >
    <v>      -0.07760942       0.07760942       0.07760942 </v>
    <v>       0.07760942      -0.07760942       0.07760942 </v>
    <v>       0.07760942       0.07760942      -0.07760942 </v>
   </varray>
  </crystal>
  <varray name="positions" >
   <v>       0.25000000       0.25000000       0.25000000 </v>
   <v>       0.75000000       0.25000000       0.25000000 </v>
   <v>       0.25000000       0.75000000       0.25000000 </v>
   <v>       0.75000000       0.75000000       0.25000000 </v>
   <v>       0.25000000       0.25000000       0.75000000 </v>
   <v>       0.75000000       0.25000000       0.75000000 </v>
   <v>       0.25000000       0.75000000       0.75000000 </v>
   <v>       0.75000000       0.75000000       0.75000000 </v>
   <v>       0.00000000       0.00000000       0.00000000 </v>
   <v>       0.50000000       0.00000000       0.00000000 </v>
   <v>       0.00000000       0.50000000       0.00000000 </v>
   <v>       0.50000000       0.50000000       0.00000000 </v>
   <v>       0.00000000       0.00000000       0.50000000 </v>
   <v>       0.50000000       0.00000000       0.50000000 </v>
   <v>       0.00000000       0.50000000       0.50000000 </v>
   <v>       0.50000000       0.50000000       0.50000000 </v>
  </varray>
 </structure>
 <varray name="forces" >
  <v>       0.00000000       0.00000000       0.00000000 </v>
  <v>       0.00000000       0.00000000       0.00000000 </v>
  <v>       0.00000000       0.00000000       0.00000000 </v>
  <v>       0.00000000       0.00000000       0.00000000 </v>
  <v>      -0.00000000      -0.00000000      -0.00000000 </v>
  <v>      -0.00000000       0.00000000      -0.00000000 </v>
  <v>      -0.00000000      -0.00000000      -0.00000000 </v>
  <v>      -0.00000000      -0.00000000      -0.00000000 </v>
  <v>      -0.00000000      -0.00000000      -0.00000000 </v>
  <v>      -0.00000000      -0.00000000      -0.00000000 </v>
  <v>       0.00000000      -0.00000000      -0.00000000 </v>
  <v>       0.00000000       0.00000000       0.00000000 </v>
  <v>       0.00000000       0.00000000      -0.00000000 </v>
  <v>      -0.00000000       0.00000000      -0.00000000 </v>
  <v>       0.00000000       0.00000000      -0.00000000 </v>
  <v>       0.00000000       0.00000000      -0.00000000 </v>
 </varray>
 <varray name="stress" >
  <v>      -0.07723798       0.00000000       0.00000000 </v>
  <v>       0.00000000      -0.07723798       0.00000000 </v>
  <v>       0.00000000       0.00000000      -0.07723798 </v>
 </varray>
 <energy>
  <i name="e_fr_energy">    -66.07526276 </i>
  <i name="e_wo_entrp">    -66.07526276 </i>
  <i name="e_0_energy">    -66.07526276 </i>
 </energy>
 <time name="totalsc">    0.01    0.03</time>
 <structure>
  <crystal>
   <varray name="basis" >
    <v>       0.00000000       6.44251662       6.44251662 </v>
    <v>       6.44251662       0.00000000       6.44251662 </v>
    <v>       6.44251662       6.44251662       0.00000000 </v>
   </varray>
   <i name="volume">    534.80645369 </i>
   <varray name="rec_basis" >
    <v>      -0.07760942       0.07760942       0.07760942 </v>
    <v>       0.07760942      -0.07760942       0.07760942 </v>
    <v>       0.07760942       0.07760942      -0.07760942 </v>
   </varray>
  </crystal>
  <varray name="positions" >
   <v>       0.25000000       0.25000000       0.25000000 </v>
   <v>       0.75000000       0.25000000       0.25000000 </v>
   <v>       0.25000000       0.75000000       0.25000000 </v>
   <v>       0.75000000       0.75000000       0.25000000 </v>
   <v>       0.25000000       0.25000000       0.75000000 </v>
   <v>       0.75000000       0.25000000       0.75000000 </v>
   <v>       0.25000000       0.75000000       0.75000000 </v>
   <v>       0.75000000       0.75000000       0.75000000 </v>
   <v>       0.00000000       0.00000000       0.00000000 </v>
   <v>       0.50000000       0.00000000       0.00000000 </v>
   <v>       0.00000000       0.50000000       0.00000000 </v>
   <v>       0.50000000       0.50000000       0.00000000 </v>
   <v>       0.00000000       0.00000000       0.50000000 </v>
   <v>       0.50000000       0.00000000       0.50000000 </v>
   <v>       0.00000000       0.50000000       0.50000000 </v>
   <v>       0.50000000       0.50000000       0.50000000 </v>
  </varray>
 </structure>
 <varray name="forces" >
  <v>       0.00000000      -0.00000000      -0.00000000 </v>
  <v>      -0.00000000      -0.00000000       0.00000000 </v>
  <v>       0.00000000       0.00000000      -0.00000000 </v>
  <v>      -0.00000000       0.00000000      -0.00000000 </v>
  <v>       0.00000000       0.00000000      -0.00000000 </v>
  <v>       0.00000000      -0.00000000      -0.00000000 </v>
  <v>      -0.00000000      -0.00000000      -0.00000000 </v>
  <v>      -0.00000000      -0.00000000       0.00000000 </v>
  <v>      -0.00000000      -0.00000000      -0.00000000 </v>
  <v>       0.00000000       0.00000000      -0.00000000 </v>
  <v>       0.00000000      -0.00000000       0.00000000 </v>
  <v>      -0.00000000       0.00000000       0.00000000 </v>
  <v>      -0.00000000       0.00000000       0.00000000 </v>
  <v>       0.00000000       0.00000000       0.00000000 </v>
  <v>      -0.00000000      -0.00000000       0.00000000 </v>
  <v>       0.00000000       0.00000000      -0.00000000 </v>
 </varray>
 <varray name="stress" >
  <v>      -0.07723798      -0.00000000       0.00000000 </v>
  <v>      -0.00000000      -0.07723798      -0.00000000 </v>
  <v>       0.00000000      -0.00000000      -0.07723798 </v>
 </varray>
 <energy>
  <i name="e_fr_energy">    -66.07526276 </i>
  <i name="e_wo_entrp">    -66.07526276 </i>
  <i name="e_0_energy">    -66.07526276 </i>
 </energy>
 <time name="totalsc">    0.01    0.03</time>
 <structure>
  <crystal>
   <varray name="basis" >
    <v>       0.00000000       6.44251661       6.44251661 </v>
    <v>       6.44251661       0.00000000       6.44251661 </v>
    <v>       6.44251661       6.44251661       0.00000000 </v>
   </varray>
   <i name="volume">    534.80644898 </i>
   <varray name="rec_basis" >
    <v>      -0.07760942       0.07760942       0.07760942 </v>
    <v>       0.07760942      -0.07760942       0.07760942 </v>
    <v>       0.07760942       0.07760942      -0.07760942 </v>
   </varray>
  </crystal>
  <varray name="positions" >
   <v>       0.25000000       0.25000000       0.25000000 </v>
   <v>       0.75000000       0.25000000       0.25000000 </v>
   <v>       0.25000000       0.75000000       0.25000000 </v>
   <v>       0.75000000       0.75000000       0.25000000 </v>
   <v>       0.25000000       0.25000000       0.75000000 </v>
   <v>       0.75000000       0.25000000       0.75000000 </v>
   <v>       0.25000000       0.75000000       0.75000000 </v>
   <v>       0.75000000       0.75000000       0.75000000 </v>
   <v>       0.00000000       0.00000000       0.00000000 </v>
   <v>       0.50000000       0.00000000       0.00000000 </v>
   <v>       0.00000000       0.50000000       0.00000000 </v>
   <v>       0.50000000       0.50000000       0.00000000 </v>
   <v>       0.00000000       0.00000000       0.50000000 </v>
   <v>       0.50000000       0.00000000       0.50000000 </v>
   <v>       0.00000000       0.50000000       0.50000000 </v>
   <v>       0.50000000       0.50000000       0.50000000 </v>
  </varray>
 </structure>
 <varray name="forces" >
  <v>      -0.00000000       0.00000000      -0.00000000 </v>
  <v>       0.00000000       0.00000000       0.00000000 </v>
  <v>       0.00000000       0.00000000      -0.00000000 </v>
  <v>      -0.00000000       0.00000000       0.00000000 </v>
  <v>      -0.00000000      -0.00000000      -0.00000000 </v>
  <v>      -0.00000000      -0.00000000       0.00000000 </v>
  <v>      -0.00000000      -0.00000000      -0.00000000 </v>
  <v>      -0.00000000      -0.00000000       0.00000000 </v>
  <v>      -0.00000000      -0.00000000      -0.00000000 </v>
  <v>       0.00000000      -0.00000000      -0.00000000 </v>
  <v>      -0.00000000       0.00000000      -0.00000000 </v>
  <v>       0.00000000      -0.00000000      -0.00000000 </v>
  <v>      -0.00000000       0.00000000       0.00000000 </v>
  <v>       0.00000000      -0.00000000       0.00000000 </v>
  <v>      -0.00000000       0.00000000      -0.00000000 </v>
  <v>       0.00000000       0.00000000      -0.00000000 </v>
 </varray>
 <varray name="stress" >
  <v>      -0.07723798       0.00000000       0.00000000 </v>
  <v>       0.00000000      -0.07723798      -0.00000000 </v>
  <v>       0.00000000      -0.00000000      -0.07723798 </v>
 </varray>
 <energy>
  <i name="e_fr_energy">    -66.07526276 </i>
  <i name="e_wo_entrp">    -66.07526276 </i>
  <i name="e_0_energy">    -66.07526276 </i>
 </energy>
 <time name="totalsc">    0.01    0.03</time>
 <structure>
  <crystal>
   <varray name="basis" >
    <v>       0.00000000       6.44251660       6.44251660 </v>
    <v>       6.44251660       0.00000000       6.44251660 </v>
    <v>       6.44251660       6.44251660       0.00000000 </v>
   </varray>
   <i name="volume">    534.80644663 </i>
   <varray name="rec_basis" >
    <v>      -0.07760942       0.07760942       0.07760942 </v>
    <v>       0.07760942      -0.07760942       0.07760942 </v>
    <v>       0.07760942       0.07760942      -0.07760942 </v>
   </varray>
  </crystal>
  <varray name="positions" >
   <v>       0.25000000       0.25000000       0.25000000 </v>
   <v>       0.75000000       0.25000000       0.25000000 </v>
   <v>       0.25000000       0.75000000       0.25000000 </v>
   <v>       0.75000000       0.75000000       0.25000000 </v>
   <v>       0.25000000       0.25000000       0.75000000 </v>
   <v>       0.75000000       0.25000000       0.75000000 </v>
   <v>       0.25000000       0.75000000       0.75000000 </v>
   <v>       0.75000000       0.75000000       0.75000000 </v>
   <v>       0.00000000       0.00000000       0.00000000 </v>
   <v>       0.50000000       0.00000000       0.00000000 </v>
   <v>       0.00000000       0.50000000       0.00000000 </v>
   <v>       0.50000000       0.50000000       0.00000000 </v>
   <v>       0.00000000       0.00000000       0.50000000 </v>
   <v>       0.50000000       0.00000000       0.50000000 </v>
   <v>       0.00000000       0.50000000       0.50000000 </v>
   <v>       0.50000000       0.50000000       0.50000000 </v>
  </varray>
 </structure>
 <varray name="forces" >
  <v>       0.00000000       0.00000000       0.00000000 </v>
  <v>      -0.00000000      -0.00000000      -0.00000000 </v>
  <v>      -0.00000000       0.00000000      -0.00000000 </v>
  <v>       0.00000000      -0.00000000       0.00000000 </v>
  <v>      -0.00000000       0.00000000       0.00000000 </v>
  <v>      -0.00000000      -0.00000000      -0.00000000 </v>
  <v>      -0.00000000       0.00000000       0.00000000 </v>
  <v>      -0.00000000       0.00000000      -0.00000000 </v>
  <v>       0.00000000      -0.00000000       0.00000000 </v>
  <v>      -0.00000000      -0.00000000       0.00000000 </v>
  <v>       0.00000000       0.00000000      -0.00000000 </v>
  <v>      -0.00000000      -0.00000000      -0.00000000 </v>
  <v>       0.00000000      -0.00000000      -0.00000000 </v>
  <v>       0.00000000      -0.00000000      -0.00000000 </v>
  <v>      -0.00000000       0.00000000      -0.00000000 </v>
  <v>       0.00000000       0.00000000       0.00000000 </v>
 </varray>
 <varray name="stress" >
  <v>      -0.07723798      -0.00000000       0.00000000 </v>
  <v>      -0.00000000      -0.07723798       0.00000000 </v>
  <v>       0.00000000       0.00000000      -0.07723798 </v>
 </varray>
 <energy>
  <i name="e_fr_energy">    -66.07526276 </i>
  <i name="e_wo_entrp">    -66.07526276 </i>
  <i name="e_0_energy">    -66.07526276 </i>
 </energy>
 <time name="totalsc">    0.01    0.03</time>
 <structure>
  <crystal>
   <varray name="basis" >
    <v>       0.00000000       6.44430470       6.44430470 </v>
    <v>       6.44430470       0.00000000       6.44430470 </v>
    <v>       6.44430470       6.44430470       0.00000000 </v>
   </varray>
   <i name="volume">    535.25187240 </i>
   <varray name="rec_basis" >
    <v>      -0.07758789       0.07758789       0.07758789 </v>
    <v>       0.07758789      -0.07758789       0.07758789 </v>
    <v>       0.07758789       0.07758789      -0.07758789 </v>
   </varray>
  </crystal>
  <varray name="positions" >
   <v>       0.25000000       0.25000000       0.25000000 </v>
   <v>       0.75000000       0.25000000       0.25000000 </v>
   <v>       0.25000000       0.75000000       0.25000000 </v>
   <v>       0.75000000       0.75000000       0.25000000 </v>
   <v>       0.25000000       0.25000000       0.75000000 </v>
   <v>       0.75000000       0.25000000       0.75000000 </v>
   <v>       0.25000000       0.75000000       0.75000000 </v>
   <v>       0.75000000       0.75000000       0.75000000 </v>
   <v>       0.00000000       0.00000000       0.00000000 </v>
   <v>       0.50000000       0.00000000       0.00000000 </v>
   <v>       0.00000000       0.50000000       0.00000000 </v>
   <v>       0.50000000       0.50000000       0.00000000 </v>
   <v>       0.00000000       0.00000000       0.50000000 </v>
   <v>       0.50000000       0.00000000       0.50000000 </v>
   <v>       0.00000000       0.50000000       0.50000000 </v>
   <v>       0.50000000       0.50000000       0.50000000 </v>
  </varray>
 </structure>
 <varray name="forces" >
  <v>      -0.00000000       0.00000000       0.00000000 </v>
  <v>       0.00000000       0.00000000       0.00000000 </v>
  <v>      -0.00000000      -0.00000000      -0.00000000 </v>
  <v>      -0.00000000       0.00000000       0.00000000 </v>
  <v>       0.00000000      -0.00000000       0.00000000 </v>
  <v>       0.00000000       0.00000000      -0.00000000 </v>
  <v>      -0.00000000      -0.00000000      -0.00000000 </v>
  <v>      -0.00000000       0.00000000      -0.00000000 </v>
  <v>       0.00000000       0.00000000       0.00000000 </v>
  <v>      -0.00000000      -0.00000000       0.00000000 </v>
  <v>       0.00000000      -0.00000000      -0.00000000 </v>
  <v>      -0.00000000      -0.00000000      -0.00000000 </v>
  <v>       0.00000000       0.00000000       0.00000000 </v>
  <v>       0.00000000       0.00000000      -0.00000000 </v>
  <v>      -0.00000000       0.00000000      -0.00000000 </v>
  <v>       0.00000000       0.00000000      -0.00000000 </v>
 </varray>
 <varray name="stress" >
  <v>      -0.07716690       0.00000000      -0.00000000 </v>
  <v>       0.00000000      -0.07716690       0.00000000 </v>
  <v>      -0.00000000       0.00000000      -0.07716690 </v>
 </varray>
 <energy>
  <i name="e_fr_energy">    -66.07524129 </i>
  <i name="e_wo_entrp">    -66.07524129 </i>
  <i name="e_0_energy">    -66.07524129 </i>
 </energy>
